/*--------------------------------*- C++ -*----------------------------------*\
  =========                 |
  \\      /  F ield         | OpenFOAM: The Open Source CFD Toolbox
   \\    /   O peration     | Website:  https://openfoam.org
    \\  /    A nd           | Version:  7
     \\/     M anipulation  |
\*---------------------------------------------------------------------------*/
FoamFile
{
    version     2.0;
    format      ascii;
    class       volScalarField;
    location    "10";
    object      p;
}
// * * * * * * * * * * * * * * * * * * * * * * * * * * * * * * * * * * * * * //

dimensions      [0 2 -2 0 0 0 0];

internalField   nonuniform List<scalar> 
5218
(
1.61204818191
1.58488329482
1.57997118862
1.5768460791
1.57435432203
1.57256174429
0.00982286298334
0.010406662534
0.00879223870423
0.00633351350121
0.00386114630077
0.00169307244133
1.60604150254
1.58379741698
1.57957841052
1.57637997751
1.5730341936
1.56830134532
1.56314894812
0.0107131007212
0.0106483992062
0.00856069199929
0.00602290559735
0.00361274275779
0.00157544536612
1.60517106173
1.58357220904
1.57950997404
1.57623127864
1.57228570412
1.56354603695
1.52463521137
0.977585905023
0.202642917862
0.0174554625867
0.0109682846316
0.00833126258099
0.00583613024134
0.00348050123855
0.00148619258346
1.60676272621
1.58430528339
1.57979041989
1.57667096615
1.5738765985
1.57103813243
1.56704720421
0.00968489185934
0.0104908940385
0.00871443825397
0.00620745796044
0.00375348741145
0.00163668856418
1.61760864933
1.58593559901
1.58027372729
1.57708738122
1.57444321016
1.57261118111
0.0098966957114
0.0106795273075
0.00924273133073
0.00677178499103
0.00423222847803
0.00190592149626
1.58903493324
1.58361159456
1.57985384706
1.57693201524
1.57466411416
1.57342077771
0.00968007318272
0.0109764825196
0.00912655504304
0.00641481574727
0.0037873840889
0.00150545661089
1.58544031477
1.58168880945
1.57872480709
1.57566418302
1.57239755607
1.57091294638
1.56682179415
0.0129539098396
0.0110708237367
0.00818819741
0.00547592316748
0.00302054626562
0.00186150919991
1.5849022872
1.58168886543
1.5787248441
1.57566419523
1.57239753698
1.5661198505
1.53062831148
0.960689660884
0.147348338405
0.012953857731
0.0110708144907
0.00818820664837
0.0054759557454
0.00302059773177
0.0015602263571
1.58683134193
1.5833208933
1.57979744805
1.57680080638
1.57419194053
1.57219921127
1.57247511748
0.00958500960306
0.011312105039
0.0091689286766
0.00636765441104
0.00365403328778
0.00144669237063
1.59591743221
1.58340637902
1.57974773227
1.57682153104
1.57447895591
1.5728865058
0.0100575863248
0.0112260855753
0.00929005223428
0.00655593298195
0.0039710083697
0.0014612437746
1.5871926625
1.58301616
1.57975600969
1.57702417419
1.57495279063
1.57414314854
0.00956819521919
0.0113803717991
0.00943723918851
0.00652871852955
0.00375177853119
0.00141500159491
1.58376692301
1.5815487229
1.57875584418
1.57582172283
1.5727387242
1.57172799316
1.56947277626
0.0125392163242
0.0109993922595
0.00816107866084
0.00547509953869
0.00297403521906
0.00144142068302
1.58327984749
1.58154877603
1.57875587814
1.57582173963
1.57273870836
1.56673913373
1.53272965187
0.954332058034
0.136179249985
0.0125392055923
0.0109993955842
0.00816110045373
0.00547515398608
0.00297410759147
0.000930608284948
1.58507465306
1.58284005785
1.57980033394
1.57696274398
1.57455176248
1.5730381919
1.57484066161
0.00927736945967
0.0115734209102
0.00938244360373
0.00646766788001
0.00359005831655
0.00127628370213
1.59351052522
1.58278976665
1.57962585872
1.57689599249
1.57474156173
1.57328849162
0.0101190337321
0.011669285601
0.00960353719123
0.00667729796784
0.00399508181405
0.00109850253598
1.58771583828
1.58322299495
1.57980585322
1.57699712302
1.57483592817
1.57386771268
0.00960557784865
0.0112987923789
0.00935317457493
0.0064972663036
0.0037645171056
0.00142996083286
1.58428130892
1.58169049872
1.57873263103
1.57567140247
1.57240245359
1.57125190446
1.56903990924
0.0129159508207
0.0110832034566
0.00819496872635
0.00547878454262
0.00302047728379
0.00124866563416
1.58378980916
1.58169054381
1.5787326614
1.5756714149
1.57240242361
1.5662782074
1.53206071067
0.955125442229
0.137150669696
0.0129159575711
0.0110832033396
0.00819499334661
0.00547884854635
0.00302057661361
0.000748976793223
1.58558733489
1.58299561878
1.57982110793
1.57691488559
1.57442086777
1.57270785958
1.57448099348
0.00933805219336
0.0115000152473
0.00929722140675
0.00642192813765
0.00360517425133
0.00128640305156
1.59374730545
1.58305264431
1.57969376938
1.57688048651
1.57464562428
1.57316138876
0.0101205284558
0.0115441461137
0.00950364882974
0.00664155476372
0.00399375864183
0.00108742831684
1.59123520421
1.58411240956
1.57993971487
1.57688869526
1.57445643456
1.57289815447
0.00990157320881
0.0106845316696
0.00891363200212
0.00635114158786
0.0038191451711
0.00156551809841
1.58762276833
1.58331980068
1.57967202095
1.5764825222
1.57326449117
1.56933107965
1.56514518387
0.0113960559358
0.0111836827696
0.0087211062971
0.00605804355881
0.00351476098781
0.00138165211561
1.58707321786
1.58313352994
1.57962648161
1.57634560802
1.57258681393
1.56481332547
1.52840150554
0.963789973028
0.155873812111
0.0181335373571
0.0116917111644
0.00852900991272
0.00588935985981
0.00337923341789
0.00123982838225
1.58896558294
1.58367677906
1.57982011135
1.57674821085
1.57403361099
1.57151928974
1.57121312734
0.00979456722871
0.0109462375391
0.00889674329772
0.00624143747414
0.00366979502887
0.00145295517891
1.59720901956
1.58472660042
1.57996334452
1.57684584924
1.57437282219
1.57260188816
0.0100480251828
0.0108198177456
0.00903518667486
0.00647502218775
0.0039550900484
0.001741401242
1.59720875083
1.58839383471
1.61740879481
1.58838475273
1.58472634388
1.58200065304
1.5861023938
1.58132211356
1.57996319005
1.57831028697
1.58037280675
1.57787550099
1.57684585262
1.57553277206
1.57713722391
1.57514590556
1.57437299515
1.57347970569
1.57447362356
1.57300291864
1.57260223781
1.57257795525
0.00911471439023
0.009230503107
0.0100482378734
0.0109798732097
0.00988769037466
0.0108181983262
0.0108199245565
0.010133964033
0.0107260367697
0.00981996752716
0.00903498973617
0.0077857430293
0.00923821050969
0.00744588974093
0.00647462846099
0.00519028491202
0.00677470361001
0.00487750214096
0.00395463878557
0.00279477122178
0.00425039231685
0.00248797565295
0.00174108403759
0.000213214493231
0.00192040826308
0.000264509517823
1.57344185897
1.57151953674
1.57088709923
1.57256595775
1.57240122217
1.57104348423
1.56706934304
1.57121350181
1.56704757361
0.00836623396986
0.0061906386157
0.00886323652719
0.00717414876863
1.52840155677
1.17176514398
1.56314830983
1.52463268103
1.18542777319
0.963789915623
0.370751749772
0.977616791776
0.393774321314
0.00459175320291
0.155873833553
0.0127502521589
0.00531711703631
0.202576695089
0.0176791073098
1.17176507019
1.56514492836
1.52463262932
1.18542773595
1.56314808649
0.37075171986
0.977616816122
0.393774311129
0.0127501987203
0.00459155768446
0.202576644431
0.0176790532992
0.00531684283802
1.570886765
1.57289785349
1.57344140653
1.5710432528
1.56706909283
1.57256566923
1.5724008639
1.56704734666
0.00619044839897
0.00836606240584
0.00717387177029
0.00886304218804
1.58839408504
1.61740903109
1.5883849629
1.58200085816
1.58610259444
1.58132228402
1.57831036601
1.58037295084
1.57787554926
1.57553269742
1.57713723267
1.57514578639
1.57347946209
1.57447345937
1.573002648
1.57257763811
0.00911449175072
0.00923029387311
0.0109796646921
0.00988744055573
0.0108179277114
0.0101339717234
0.0107257899772
0.00982008788764
0.00778604741856
0.00923836379389
0.00744624402155
0.00519073520089
0.00677507411393
0.00487787734135
0.00279519305721
0.0042508250059
0.00248839695059
0.00021326880813
0.00192079346558
0.000264583818092
1.61760823565
1.58826069779
1.59736384407
1.58710800671
1.58593520827
1.58121168736
1.58535377751
1.58124275796
1.58027348673
1.57781786123
1.5803542712
1.57787892138
1.57708732534
1.57510680974
1.57714633406
1.57519252056
1.57444333395
1.57305021157
1.5745450359
1.5733574606
1.57261141172
1.57304085317
0.00935184339093
0.00920155643651
0.00989705935087
0.0107487089993
0.00998906745125
0.0109090322185
0.0106799049732
0.00980972745965
0.010780587751
0.00992006097029
0.00924241656505
0.00743479166967
0.00926650848759
0.00746168015027
0.00677121172633
0.00485222655979
0.0067419002167
0.00483680790204
0.00423165260256
0.00245191908257
0.00418813308289
0.00240140782563
0.00190575331653
0.000280094457783
0.00176782265605
0.000274656912677
1.57240499414
1.57103830969
1.56707045443
1.57291141577
1.57345152343
1.57150596369
1.57088447953
1.56704744971
1.57120958728
0.00902073222685
0.00701038492913
0.00867553148135
0.00667659462082
1.52463524857
1.18540845572
1.56514554904
1.52840275282
1.17174127806
0.977585868337
0.393757189771
0.963747328265
0.370568903055
0.00522552951862
0.202642907689
0.0178972696931
0.00442413396881
0.155565534446
0.011660545741
1.18540841583
1.56314883639
1.52840272996
1.17174122003
1.56514537479
0.393757183836
0.963747274668
0.37056889275
0.0178971733877
0.00522508142485
0.15556559166
0.0116604709552
0.00442396980796
1.56707028292
1.57256154731
1.57240469167
1.57150578445
1.570884261
1.57291117694
1.57345113214
1.57120935811
0.00700999430622
0.00902031996307
0.00667642562628
0.00867505577264
1.58826110316
1.59736426433
1.58710843552
1.58121198083
1.58535417713
1.58124307394
1.57781795468
1.58035453122
1.57787904493
1.57510673789
1.57714641256
1.57519246218
1.57305003161
1.57454494415
1.57335723743
1.57304058203
0.00935152408491
0.00920110857108
0.0107483289858
0.00998877488455
0.0109088278155
0.00980987978213
0.0107803539996
0.0099201677524
0.00743526462172
0.00926668338929
0.00746215889415
0.00485280520386
0.00674243539221
0.00483738648424
0.00245229250395
0.00418870455883
0.00240180456662
0.000280089922321
0.00176818990732
0.000274672399818
1.59591700953
1.5867745183
1.59376917303
1.58576069222
0.00146094798319
0.000281594209741
0.00108367691306
0.000259019329461
1.58677492991
1.59376953495
1.58576109641
0.000281607520883
0.0010840896932
0.000259058200315
1.59351016068
1.58559620906
1.59349704063
1.58559333734
0.00109824488453
0.000257655509859
0.00109872856205
0.000257204787653
1.58559658341
1.59349733628
1.58559367058
0.000257686136362
0.00109908183158
0.000257243392859
1.59374699842
1.58576009664
1.59580383242
1.58677785607
0.00108720060662
0.000257445161094
0.00143671468373
0.000267401230632
1.58576040834
1.59580410461
1.58677812207
0.000257484129655
0.0014370384026
0.000267438696058
1.58690634917
1.58896540243
1.58590042453
1.61190198876
1.58832960772
1.60671590425
1.5871657103
1.58182646314
1.58367663387
1.58159590363
1.58485330425
1.5820431845
1.58429310635
1.58175586517
1.57833265654
1.57982002771
1.57821356049
1.57998525268
1.57832701521
1.57980872694
1.57818454946
1.57559380235
1.57674821298
1.5753487817
1.57686352435
1.57554786483
1.57669081412
1.57528178796
1.57356884631
1.57403371859
1.57281616655
1.57436037793
1.57335817644
1.57389185309
1.57253065389
0.0108258145685
0.00979474422524
0.0112752420729
0.00983824788954
0.0105578880426
0.00979819498967
0.0107273937772
0.0100055068858
0.0109464015281
0.0101078657712
0.0104650255838
0.00984201016374
0.0105710289985
0.00985007047478
0.00766784094894
0.0088966920252
0.00759682856523
0.00881981404379
0.00762688355123
0.00874506984058
0.00751599187359
0.00505751328076
0.00624117263086
0.00491169085909
0.00635401376546
0.0050938180006
0.00622388489874
0.00496400648987
0.00266377567035
0.00366944605863
0.00250738350308
0.00387723922876
0.00272862338242
0.00376133932297
0.00264175580093
0.000461860882518
0.00145273454138
0.000440646297777
0.00169630301773
0.000320880977481
0.00163547602515
0.000282630851242
1.58512179146
1.58707317821
1.58477194002
1.60600828101
1.58630164585
1.60515545104
1.5859141297
1.56591999286
1.56481337633
1.55552488064
1.56830354983
1.56382472474
1.563547917
1.55270273612
0.000392185049988
0.00123976955371
0.000336602835554
0.00157076848651
0.000298859150774
0.00147998284283
0.000273737574164
1.58477196522
1.58762286903
1.58512188426
1.60515547108
1.5859141612
1.6060084042
1.58630173048
1.55552481414
1.56933094765
1.56591982781
1.56354786561
1.55270266333
1.56830340377
1.56382454491
0.000336641069437
0.00138183916885
0.000392271021427
0.00148005095677
0.000273755637601
0.00157099354713
0.000298902329719
1.58590058025
1.59123542978
1.58690656835
1.60671605871
1.58716585944
1.61190220769
1.58832979495
1.58159601197
1.58411259587
1.5818266307
1.58429322135
1.58175596026
1.58485348402
1.58204333525
1.57821359572
1.57993983767
1.57833272518
1.57980879603
1.578184579
1.57998536828
1.57832705584
1.57534873212
1.57688869554
1.57559373187
1.57669078597
1.57528171189
1.57686350557
1.57554778515
1.5728160032
1.57445630789
1.57356861877
1.57389173376
1.57253047194
1.57436020617
1.57335794266
0.011275048878
0.00990137696772
0.0108256142216
0.00979799373256
0.0107272110433
0.00983807374844
0.0105576742225
0.0101078070011
0.0106844049757
0.0100055467602
0.0105709253984
0.00985002371142
0.0104649964652
0.00984203106933
0.00759695217395
0.00891378244607
0.00766813170026
0.00874520778068
0.00751617835917
0.00882003641497
0.00762711761996
0.00491198395783
0.00635149322386
0.00505790067905
0.00622412880552
0.00496428311406
0.00635428466123
0.00509419360038
0.00250772293586
0.0038195832434
0.00266414316657
0.00376162940272
0.00264204956822
0.0038775508992
0.00272899583543
0.000440768487637
0.00156579934743
0.000461974809626
0.0016357191084
0.000282678810487
0.00169652696743
0.000320943378437
1.60058895383
1.60544167284
1.62889337098
1.60054288336
1.61745176698
1.59692642386
1.60501367152
1.59292741161
1.58852667616
1.58965681887
1.59289921018
1.58842680872
1.59219629106
1.59478594889
1.5839117383
1.58646222695
1.58655482397
1.58392327384
1.58607784559
1.58428217666
1.58425770609
1.58258867377
1.5815515834
1.58145630484
1.58257886043
1.58132034626
1.58287934708
1.58272050457
1.57945317814
1.58054777186
1.58043111453
1.57944752747
1.58038517804
1.57958439912
1.57951467812
1.57867427157
1.57796907176
1.57792023056
1.57864912238
1.5778942974
1.57875752983
1.57868412261
1.57649148618
1.5772228352
1.57717399367
1.57645244619
1.57718453387
1.5765377801
1.57649624323
1.57584280277
1.5752558653
1.57520340292
1.57575447607
1.575220983
1.57585456213
1.57580982934
1.57409919075
1.57462716844
1.57457121734
1.57396492922
1.57463202071
1.57413675296
1.57405555409
1.5736220446
1.57329017257
1.57316185832
1.57335153115
1.57322560219
1.57360694647
1.57351991696
1.57282712843
1.57297498846
1.57278437098
1.57267817035
1.572854859
1.57313145577
1.57277000058
1.57305601233
1.57324868808
1.57342251467
1.5730127085
0.00924212573773
0.0092101311723
0.00935846920524
0.00912419613943
0.00932017022807
0.0091521197813
0.00924401676056
0.0101273722288
0.0098030318939
0.0098452801305
0.0102280525113
0.009826728457
0.0100604521918
0.0101600732363
0.0105605498451
0.01058203612
0.0106396506853
0.0106713073792
0.0106699972263
0.0104722489692
0.0105254937829
0.0104824491179
0.0105038013886
0.0105923883546
0.0105893037151
0.010624402718
0.0103852514443
0.0104534125848
0.0101572523336
0.00968407551419
0.0097494131199
0.0102037181876
0.00977507592359
0.0100354673207
0.0101240664735
0.00870031006234
0.00912353034332
0.00921253340784
0.0087008638259
0.00922900078781
0.00862006824148
0.00869055901312
0.00807169015843
0.00740255287061
0.0074709323773
0.00805404738169
0.00747363492585
0.0079819253367
0.00806323384258
0.00618771972954
0.00673038617196
0.00680375824496
0.006147170568
0.00680726035054
0.00612598825898
0.00619046079452
0.00553163845039
0.00486922798327
0.00492396125243
0.00549297822281
0.00492017434386
0.00546684065414
0.00552779278642
0.00369621994666
0.0042358106272
0.00428179499288
0.00366067358221
0.00428686283452
0.00365902651447
0.00370218029934
0.00309484893203
0.00249083214151
0.00253273834116
0.00306727417154
0.0025146749547
0.00305947863115
0.00309164417065
0.00135785004755
0.00191493969229
0.00196551427434
0.0013426927451
0.00193307583914
0.00126574439611
0.00150624901363
0.000877587532609
0.000236886767279
0.000314995356049
0.000881772945229
0.000264576087694
0.000644501660204
0.000970015142212
1.57157761484
1.57241834505
1.57330899685
1.57202104798
1.57280083987
1.57249658017
1.57236528321
1.56838460717
1.56793165394
1.56813464651
0.00818659827975
0.00887716588991
0.00871048227367
0.00842079965057
0.00868198197155
0.00862759007644
0.00816493286528
1.5605258528
1.56193898568
1.55795579601
1.55028323711
1.56049227522
1.55277842006
1.55032984144
1.49991896156
1.17943827816
1.4041612499
1.39482279636
1.50717110126
0.972150117127
0.781145737707
0.77758252739
0.386989837103
0.58477835055
0.580298514046
-0.0209991374539
-0.00629535000206
-0.0079618697837
-0.0148207307054
-0.0495435552021
0.184547701317
0.049791444059
0.0477703120362
-0.0334741170658
1.49991893219
1.1794382564
1.40416126795
1.39482283511
1.50717107676
1.56052569127
1.56193875963
1.55028308327
1.55795559887
1.55277825441
1.56049208198
1.55032967996
0.972150115759
0.781145785714
0.777582542561
0.386989860155
0.584778410154
0.580298628787
-0.0495437696253
0.184547742174
0.049791290289
0.0477703986443
-0.033474679963
-0.0209994994054
-0.00629586056081
-0.00796249266861
-0.0148212666466
1.57157726528
1.57241797713
1.57202071976
1.57330863752
1.5724962501
1.57280049543
1.57236498986
1.5683843213
1.56793133753
1.56813432499
0.00818655045331
0.00887693377428
0.00842056955768
0.00871067658236
0.00862743218346
0.0086820670696
0.00816486149624
1.60058920521
1.60544191459
1.60054311141
1.62889361587
1.59692666519
1.61745202107
1.60501391531
1.59292766035
1.58852691195
1.59289942525
1.58965704162
1.59219653595
1.58842706296
1.59478618597
1.58391196327
1.58646245506
1.58392349536
1.58655506525
1.58428239637
1.58607807385
1.58425792269
1.58258888456
1.58155177383
1.5825790511
1.58145649393
1.58287953517
1.58132053179
1.58272069171
1.57945331282
1.58054791853
1.57944765619
1.58043127518
1.57958451991
1.58038534102
1.57951481431
1.57867436965
1.57796912069
1.57864920843
1.57792029447
1.57875762767
1.57789436879
1.57868423481
1.57649145886
1.57722284455
1.57645240746
1.57717402648
1.57653773891
1.57718455758
1.57649623657
1.5758427322
1.57525574264
1.57575438821
1.57520327922
1.57585447587
1.57522086612
1.57580976373
1.57409899481
1.57462700188
1.57396471208
1.57457103723
1.57413655761
1.57463184559
1.57405531702
1.57362178943
1.57328989209
1.57335129272
1.57316159426
1.57360671036
1.57322533366
1.57351969372
1.57282674576
1.57297464933
1.57267779753
1.57278405486
1.57313108608
1.57285449836
1.57276963054
1.57305559891
1.57324826725
1.57342203451
1.57301232065
0.00924193572076
0.00921004883821
0.00912392119593
0.00935814476825
0.00915239997816
0.00932047174319
0.00924265559433
0.0101271051856
0.0098026238295
0.0102277041299
0.00984527561424
0.0100601460932
0.00982658830918
0.0101596462236
0.0105602819167
0.0105818261172
0.0106709574518
0.0106392745774
0.0104719884581
0.0106697455578
0.0105251089423
0.0104823639721
0.0105036990371
0.0105893487858
0.0105923079254
0.0103852006845
0.0106243204029
0.0104534332726
0.0101573629498
0.00968420216629
0.0102037818981
0.00974954801562
0.010035508333
0.00977518918606
0.0101240187297
0.00870055556891
0.00912365247215
0.00870110919076
0.00921278653848
0.00862025172487
0.00922922206456
0.00869091346033
0.00807201918012
0.007402844255
0.00805433622911
0.00747138772622
0.00798220782394
0.00747402996633
0.00806360580776
0.00618809340299
0.00673067963663
0.00614744868365
0.00680418689581
0.00612625926692
0.00680765115303
0.00619085532795
0.00553196742319
0.00486947685864
0.00549323770308
0.00492439242362
0.00546709154791
0.0049205450474
0.00552821725975
0.00369663923535
0.00423615600443
0.00366095057928
0.0042821092086
0.00365946380404
0.00428724235756
0.00370240761118
0.00309520154858
0.00249122905693
0.0030677096666
0.00253320581739
0.00305994720084
0.00251518582928
0.00309207351912
0.00135815821527
0.00191530446709
0.00134301633288
0.00196603158101
0.00126600730923
0.0019334076907
0.00150660299986
0.000877802950625
0.00023696795619
0.000881941101744
0.000315103105122
0.000644700001848
0.000264706152615
0.00097028561385
1.58843813167
1.60676244612
1.58721877995
1.59131383942
1.58712325635
1.58902969077
1.5859674367
1.58204203359
1.58430504984
1.58174600413
1.58417188056
1.58182680177
1.58369978102
1.58159016583
1.57830894921
1.5797902734
1.57816389536
1.57992295626
1.57831233436
1.57980183181
1.57819214633
1.57553460945
1.57667092635
1.57526363152
1.57686808599
1.575575764
1.57672705316
1.57532876889
1.57336003732
1.5738766703
1.57251829268
1.5744399984
1.57355596011
1.57401521972
1.57279741154
0.0104853898832
0.00968521696554
0.0106027645288
0.00986963898141
0.0107582272583
0.00960402670658
0.011055509091
0.00980247287479
0.0104910854861
0.00980203380276
0.0106282762479
0.0099698829307
0.0108338628064
0.0100534845631
0.00760488215599
0.00871436858097
0.0074942634731
0.00888796434366
0.00764610564844
0.00886650980893
0.00757733040849
0.00507472919153
0.00620718213696
0.00495147240913
0.00632756673915
0.00503249926132
0.00622593759416
0.00489913310312
0.00271849211632
0.00375318141542
0.00263871825059
0.00379451091226
0.00264762358515
0.00365930504704
0.00250225052256
0.000326965480126
0.00163646725453
0.000286653615918
0.00155769823974
0.000493798169598
0.00145183415915
0.000439072703211
1.58632791432
1.60517103029
1.58593059548
1.58765642517
1.5851602137
1.58709435372
1.58479578436
1.58145188144
1.58357215309
1.5813583324
1.58333582459
1.58131105518
1.58314319181
1.58123096088
1.57795288721
1.57950993688
1.57788605351
1.57966018956
1.57796773026
1.57961853326
1.57790869861
1.57477501702
1.57623125768
1.57444817158
1.57646631735
1.57481420486
1.57633389591
1.57449453026
1.57099159139
1.5722857246
1.56899095588
1.57325075533
1.57129136368
1.57257710014
1.56936464859
1.56382564042
1.56354608338
1.55270428443
1.56932590482
1.56591887653
1.56480962306
1.5555244655
1.5579574947
1.55028408855
1.55033169124
1.56052764177
1.56194116037
1.56049514887
1.55278022262
-0.00566504732539
-0.0136214723569
-0.0197011066094
-0.00767886175414
0.0110206762721
0.0174555428539
0.0128349223864
0.0108378915419
0.0115750818785
0.0185352788402
0.0139988277701
0.00973406518896
0.010968327392
0.00956491230339
0.0110434613118
0.00988646957849
0.0116988483534
0.00984577817407
0.0072993229439
0.00833126357318
0.0070621025174
0.00868880479915
0.00733848096422
0.00851681200555
0.00713504261944
0.00477748909394
0.005836068168
0.00462190594938
0.00604871218621
0.00471181309463
0.00588529630517
0.00456591712189
0.0025435299344
0.00348049228953
0.00243213050711
0.00351276003554
0.00235809572085
0.00338138361815
0.00222624101522
0.000302846645688
0.00148616525738
0.000277226858149
0.00138325764279
0.000393988874658
0.00124358106876
0.000339180473848
1.58593063923
1.6060417465
1.58632807429
1.58709440606
1.5847958361
1.58765659343
1.58516036244
1.58135835649
1.58379754159
1.58145199692
1.58314323207
1.58123099661
1.58333594722
1.58131115499
1.57788606531
1.57957847758
1.57795293518
1.57961855853
1.57790871724
1.57966025847
1.57796778042
1.57444817787
1.57637999327
1.57477502047
1.57633391063
1.57449453974
1.57646635118
1.57481421292
1.56899092301
1.57303416964
1.57099150953
1.5725770963
1.56936462636
1.57325072908
1.57129130796
1.55270424098
1.56830126758
1.56382551915
1.56480958966
1.5555244238
1.56932580421
1.56591873896
0.781107512185
0.972113383067
0.777531887803
0.0499649640021
-0.0329247762652
-0.0491462075799
0.184523438486
0.0477875507298
0.0128348846906
0.0107128749625
0.0110204640998
0.0185352106118
0.0139987767289
0.0108377425408
0.0115749406486
0.00956494107182
0.010648290238
0.00973396090093
0.0116988201751
0.00984576717943
0.0110433482706
0.00988643287864
0.00706212316025
0.00856069345027
0.0072993786902
0.0085168031866
0.00713507575959
0.00868878188957
0.00733854820902
0.00462192805516
0.00602298677879
0.00477767649082
0.00588531328044
0.00456597038794
0.00604883850416
0.0047119810898
0.00243212275719
0.00361291335354
0.00254371227204
0.0033814109288
0.00222625299006
0.00351294890616
0.00235826961689
0.000277222520751
0.00157557424237
0.00030292117649
0.00124364304688
0.000339225697813
0.00138340221921
0.000394050088887
1.58721903115
1.61204855706
1.58843847446
1.58902996571
1.5859676932
1.59131420273
1.58712360889
1.58174618777
1.58488360222
1.58204229663
1.58370000802
1.58159035645
1.58417221127
1.58182707948
1.57816397546
1.57997137441
1.5783090633
1.57980196927
1.57819223852
1.57992316327
1.57831245732
1.57526362764
1.57684611751
1.57553457466
1.57672709283
1.57532876133
1.57686813595
1.57557574098
1.57251818302
1.57435423651
1.57335988348
1.57401517093
1.57279729759
1.57443990568
1.57355579646
1.56793226119
1.56838290411
1.56813568702
0.0106025242733
0.00982250884704
0.0104850751546
0.00960377883672
0.011055295499
0.00986935080835
0.0107579526573
0.00980200799141
0.0104064775186
0.00980247917398
0.0108337393857
0.0100534408881
0.0106281187911
0.00996987479386
0.00749443703373
0.00879245372374
0.0076052230146
0.00886656209482
0.00757752510122
0.00888811753273
0.00764640504104
0.00495178093778
0.00633393774054
0.00507518713617
0.00622618084813
0.00489947290355
0.00632796048194
0.0050329675034
0.00263900815357
0.0038616002707
0.00271888173494
0.003659651972
0.00250253649701
0.00379498822896
0.00264803256433
0.000286732556361
0.00169331991166
0.000326994034299
0.00145207596607
0.000439113525488
0.00155795279592
0.000493840494692
1.60072019688
1.62922047086
1.6056622535
1.6054035708
1.61780715056
1.60106681546
1.59711656386
1.58378556544
1.58645350539
1.58417408887
1.58400516641
1.58621155875
1.58407182242
1.5860712717
1.57937012919
1.58033262158
1.57942927797
1.57942070137
1.58040505615
1.57947009803
1.58031591502
1.57640581453
1.57709381229
1.5764106243
1.5764150237
1.57715887923
1.57648234365
1.57709374107
1.57394512743
1.57445834309
1.57393497613
1.57396205633
1.57459647654
1.57414348984
1.57447418155
1.57269454418
1.57271266651
1.57273661282
1.57280619781
1.57305201723
1.57316079938
1.57277375212
0.0101654233695
0.00987872107706
0.0101459379905
0.0101161595458
0.00980263731169
0.00998073995706
0.00986459804333
0.0105590865289
0.0106124635026
0.0104781203592
0.0104813491416
0.0104771635226
0.0103890657837
0.0106094503982
0.00869489418921
0.00924012341586
0.00870054187721
0.00870617798698
0.0091654624803
0.00864482553694
0.00923806529192
0.00612964210838
0.00680170057865
0.00617067082845
0.0061767332347
0.00675513055048
0.00612175813548
0.00680228528329
0.0036281273903
0.00425637667286
0.00366414193365
0.0036648042822
0.0042247364146
0.00362174886641
0.00425440120261
0.00137818196603
0.00194240302534
0.001442030648
0.00133938006522
0.00188211211037
0.00129690797907
0.00192161613699
1.58340598527
1.58154712915
1.583017937
1.5813685406
1.57974748608
1.57822381427
1.57967550803
1.57822538834
1.57682148117
1.5755749798
1.57686599667
1.5756730852
1.57447908522
1.57372032204
1.574633341
1.57396889117
1.57288684919
1.57316032101
0.00904373511297
0.00886945820353
0.0100578564213
0.0114104762302
0.0101392467462
0.0117061658156
0.0112261739845
0.0105087308109
0.011526944698
0.0107892605337
0.00928975888105
0.00795224283016
0.00948938573275
0.00808638359784
0.00655537563816
0.00522712524867
0.00662728391852
0.00526188508913
0.00397043993345
0.00290034667989
0.00397774192054
0.00288622258484
1.586155862
1.58683107921
1.58503569066
1.58774483543
1.58541706292
1.58560416684
1.58437288735
1.58160885518
1.58332067771
1.58142976694
1.58322471421
1.58145794096
1.58299844076
1.58134813923
1.57832061522
1.57979731645
1.57822322818
1.57980321936
1.57834790194
1.57981567165
1.5783013725
1.5757031211
1.57680076368
1.57551016344
1.57699170032
1.57582207642
1.57690782304
1.57567892566
1.57398385254
1.57419199603
1.57346294551
1.57483377231
1.57429586771
1.57441591708
1.57389728339
1.57411901815
1.5721994205
1.57172083427
1.57386666134
1.57534984136
1.57270581046
1.57329778039
1.5724754059
1.57447829476
0.00786587554352
0.00439844230744
0.00755781319181
0.00375491835545
0.0112088118239
0.0095851600286
0.0124357721571
0.00962284967087
0.0115203051358
0.00934686108279
0.0127342582999
0.0103174838637
0.0113121794819
0.0107342373706
0.0112712754919
0.0106137373596
0.0114726880024
0.0109316733582
0.00781330071452
0.00916891337218
0.00790097222203
0.009333620041
0.00796024058402
0.00928234635676
0.00800903686249
0.00505892154048
0.00636747300624
0.00497599276435
0.00648372149619
0.00507649546171
0.0064131906647
0.00497651538065
0.00263787037302
0.00365376421326
0.00246010718299
0.00375452595439
0.0025698726494
0.00360010860172
0.00235978511856
0.000532009407406
0.0014464887585
0.000472407140521
0.00142799624213
0.000502504641898
0.00128539343487
0.000410014203322
1.58410131418
1.5849022315
1.58376859838
1.58429206119
1.58364518709
1.58379739983
1.58339812995
1.53062836064
1.16964429675
1.56903866402
1.53206054456
1.16598870001
0.960689625595
0.364307244815
0.955121805716
0.354577669631
0.000847652548986
0.14734826526
0.00762933622538
-0.000386714448493
0.137214476875
0.00543958340326
0.000484329503868
0.00156023421028
0.000400698527365
0.00124916844169
0.000349772151527
0.000749319086682
0.000227929241954
1.58376864729
1.5854404661
1.58410144316
1.5837974395
1.58339817351
1.58429220943
1.58364530939
1.16964425015
1.5668216245
1.5320604935
1.16598864834
1.56903843109
0.364307281596
0.955121751704
0.354577618078
0.0076293159897
0.000847523476139
0.137214450998
0.00543957753571
-0.000386800870461
0.000400721495224
0.00186162993976
0.000484359693966
0.000749340339459
0.000227967432307
0.00124929569385
0.000349867707815
1.58503593929
1.58903528314
1.58615621556
1.58560441318
1.58437312607
1.58774517139
1.58541740211
1.58142993996
1.5836119192
1.5816091272
1.5829986443
1.58134830999
1.58322503531
1.5814582045
1.57822331185
1.57985404582
1.5783207374
1.57981579859
1.57830145763
1.57980342424
1.578348027
1.57551016926
1.57693206315
1.57570309601
1.57690787089
1.5756789403
1.57699175408
1.57582205411
1.57346283776
1.57466403294
1.57398367135
1.57441587293
1.57389716452
1.57483367064