/*--------------------------------*- C++ -*----------------------------------*\
  =========                 |
  \\      /  F ield         | OpenFOAM: The Open Source CFD Toolbox
   \\    /   O peration     | Website:  https://openfoam.org
    \\  /    A nd           | Version:  7
     \\/     M anipulation  |
\*---------------------------------------------------------------------------*/
FoamFile
{
    version     2.0;
    format      ascii;
    class       surfaceScalarField;
    location    "10";
    object      phi;
}
// * * * * * * * * * * * * * * * * * * * * * * * * * * * * * * * * * * * * * //

dimensions      [0 3 -1 0 0 0 0];

internalField   nonuniform List<scalar> 
14871
(
-1.80465010973e-13
1.01009898295e-12
1.21017178501e-13
2.99348853425e-13
-6.02760786886e-14
-3.21111266489e-12
2.46608191975e-12
4.61981763858e-13
5.60792464796e-13
-4.45554418845e-14
-1.00414632953e-13
-7.24972911926e-14
-1.02031610217e-14
-2.00716329324e-12
1.74445153763e-12
1.6055367955e-13
1.56135602044e-13
-9.04955146207e-15
-1.88950186813e-14
-1.58297734494e-14
-8.80051184207e-15
-1.59218133873e-12
1.48710130922e-12
1.4629217924e-13
3.70246881155e-15
-9.06788808424e-15
-1.34255202126e-14
-1.362073205e-14
-2.41434614459e-14
-1.38947446429e-12
1.2530668859e-12
3.74652748489e-13
-1.15803931612e-13
-2.67063954261e-14
-3.37132523602e-14
-3.7878172855e-14
-6.99689892519e-14
1.03499721122e-12
-2.7064128568e-13
-1.02802164399e-12
-7.03805312499e-14
-9.48970505544e-14
-9.72690920741e-14
9.4477700979e-14
1.2866818833e-13
2.21900199621e-13
1.51134919806e-13
1.35594220297e-14
2.53682436304e-14
1.23136229224e-13
-4.20264062746e-13
1.10230435626e-13
1.70938316245e-14
1.83954596129e-14
2.4992128767e-14
2.77273199843e-14
3.04562281776e-14
2.9304425425e-14
1.77028826035e-14
-5.23130128206e-13
8.59601765601e-13
-3.31484145913e-13
-9.79920924624e-14
1.63112231956e-14
3.07523680485e-14
2.82382147188e-14
1.76008858439e-15
-1.10446052188e-12
1.25535479123e-12
-7.6154921892e-14
-8.97510972331e-14
1.54609472516e-15
6.28601201858e-15
5.41942669634e-15
-2.53896670221e-15
-1.34570257583e-12
1.39359944983e-12
8.73012024744e-15
-4.86157793718e-14
-2.09456015815e-15
-1.97690139997e-15
-1.40101530073e-15
-1.81527316851e-15
-1.41813108878e-12
1.4273801268e-12
1.51287407566e-14
-1.80541301988e-14
-1.1977045393e-15
-2.13839836793e-15
-1.17249084785e-15
3.24065683814e-15
-1.42668081946e-12
-8.57191753202e-15
2.31810303953e-14
7.37455321556e-15
2.55825395476e-15
2.12425356611e-15
2.29074349852e-13
2.56683634397e-13
4.23360500544e-13
4.87654171466e-13
-3.81271393324e-14
2.53980456347e-14
9.72310414283e-13
2.90418693703e-13
-3.95932431278e-13
-3.25157619989e-12
2.81261935174e-12
2.13744588511e-13
6.21144690599e-13
-1.82917049688e-13
-2.55037447725e-12
2.41011500356e-12
1.0902973779e-13
2.14146785334e-13
-1.92581659157e-13
-2.36274329939e-12
2.39497797997e-12
1.27151635822e-13
3.31953429228e-14
-5.26041952252e-13
-2.52402933695e-12
2.79200880677e-12
4.0665089748e-13
-1.48588414699e-13
-1.69095391981e-12
-3.25314602359e-12
3.87119532023e-12
1.7143582887e-12
-6.41453665475e-13
-3.53611045313e-13
-5.98787929976e-13
2.88978152058e-13
7.36105099665e-13
-7.26844646174e-14
-1.68882759484e-13
1.35022186399e-12
2.22747035857e-12
-2.66335910129e-12
8.53762019514e-13
-5.0231579017e-13
-2.8026462268e-13
-8.16631653504e-13
5.68475939272e-13
-2.227943537e-12
2.14225099573e-12
-5.6125287475e-13
7.84694779995e-14
1.11803729183e-13
-2.08393689273e-12
2.06014032949e-12
-8.16301470412e-14
-6.37701394152e-15
-1.23030479935e-14
-2.06071357552e-12
2.07404311852e-12
1.36205647956e-14
-1.46470576511e-14
-2.11859905484e-14
-2.08962335982e-12
2.09845792686e-12
1.89710079609e-14
-6.61958553006e-15
1.07074805282e-15
-2.0996080459e-12
7.97010404201e-15
2.61744368991e-14
3.48141192882e-13
3.55947245931e-13
6.9015541809e-13
6.7014821949e-13
3.09310599372e-19
-7.412560341e-15
9.66987431422e-13
2.90424819583e-13
2.73579244617e-18
-3.20387441405e-12
2.80566054118e-12
-2.13744033779e-13
6.11955170575e-13
2.1002477235e-18
-2.59937560908e-12
2.50411022721e-12
-1.09029914898e-13
2.04293196275e-13
2.26001314924e-18
-2.51095792727e-12
2.62142583205e-12
-1.27150550646e-13
1.66803859761e-14
-1.60392864791e-18
-2.90694748143e-12
3.53341817293e-12
-4.0665334801e-13
-2.19815739027e-13
-3.85660178925e-18
-4.74230680128e-12
7.09571068732e-12
-1.71436072744e-12
-6.39039301923e-13
-2.31160420213e-18
-1.45348885618e-12
-1.14989611298e-11
5.63740626523e-12
2.10107961535e-12
2.67202879943e-12
8.2226350959e-12
-1.21767330475e-12
-1.21493239234e-12
-1.52707876175e-12
-1.72101273077e-12
5.71007091106e-19
-7.62335164247e-12
7.56281257521e-12
6.05384964214e-14
3.21307527117e-19
-7.16474668147e-12
6.68920156251e-12
4.75544797674e-13
-9.61974384043e-12
-2.63796157188e-18
5.78648581843e-12
2.66335984159e-12
1.16990081074e-12
2.7642586174e-20
-3.80130582917e-12
2.88223469477e-12
5.61251404089e-13
3.57819702475e-13
-9.21117789829e-19
-2.43654442008e-12
2.25783261596e-12
8.16332836052e-14
9.70794470839e-14
1.24812178162e-18
-2.18875422842e-12
2.18064247946e-12
-1.36091154655e-14
2.17196197083e-14
-6.07726220463e-18
-2.19143013543e-12
2.20069462271e-12
-1.89790246919e-14
9.72061438967e-15
8.42340059689e-20
-2.20363075761e-12
-7.97801911396e-15
4.37442820252e-14
3.6970121238e-13
3.67447215522e-13
7.1244372333e-13
7.18271568601e-13
3.81274925821e-14
-5.59400300611e-14
9.77422509723e-13
2.90390037399e-13
3.95937860313e-13
-3.3116517777e-12
2.76433875485e-12
-4.6198188586e-13
6.13357048158e-13
1.82922587913e-13
-2.40465864979e-12
2.18948152913e-12
-1.60556210012e-13
1.92810742551e-13
1.92585204877e-13
-2.07271887105e-12
2.01320706984e-12
-1.46294372245e-13
1.32209687704e-14
5.26039786439e-13
-1.99446591602e-12
1.991284047e-12
-3.7465425545e-13
-1.48203661741e-13
-1.03499829388e-12
-4.31645071233e-13
1.6909450674e-12
-1.9726451897e-12
3.93226041884e-13
2.79248197389e-13
4.44660016315e-13
6.31208952571e-13
3.53609705537e-13
-1.77866713095e-13
-1.30470021113e-13
-4.5272971413e-14
-6.25330273147e-15
-1.3502223282e-12
6.68637287843e-13
4.20257405854e-13
3.33335199553e-13
-3.66379016224e-16
-4.74972690944e-14
-1.78902295102e-14
-5.68479128129e-13
-1.1348637342e-12
1.42355824972e-12
3.31477805618e-13
-5.16931906153e-14
-1.11798340494e-13
-1.60947285341e-12
1.71609790563e-12
7.61427710075e-14
-7.096947926e-14
1.2314485e-14
-1.78525544336e-12
1.82521723737e-12
-8.73511313999e-15
-4.3541165191e-14
2.11896702753e-14
-1.84999352979e-12
1.85983019727e-12
-1.51339103679e-14
-1.58924285247e-14
-1.06384244967e-15
-1.8575550079e-12
8.57398156838e-15
2.81939689552e-14
3.20545240691e-13
3.05393885081e-13
5.78888634347e-13
6.17022410417e-13
1.80465484794e-13
9.98865981372e-13
-2.16886185175e-13
2.87554739615e-13
-3.72762585756e-13
6.02773970311e-14
2.96317693483e-13
-2.98684584741e-14
4.60360168122e-14
-1.81542716884e-13
1.02042615896e-14
1.66258229291e-13
-3.80169941878e-15
8.88211137853e-15
-1.39847237767e-13
8.80080063155e-15
1.34347257281e-13
-2.66466048548e-15
-6.36093198771e-16
-1.20635556346e-13
2.41434285977e-14
1.12224155677e-13
-7.20845402378e-15
-8.52380076155e-15
6.99680771095e-14
-7.5999040019e-14
4.88967095298e-14
-2.104994959e-14
-2.18162293557e-14
2.52918889207e-14
-1.35568727933e-14
-2.00908423493e-14
2.75479041516e-15
5.60201297001e-15
-3.07361997866e-14
-1.77045186965e-14
4.89165894615e-14
4.88463702912e-15
-5.35937529318e-15
-9.38639618548e-14
-1.7557155276e-15
1.01939155244e-13
1.42756975968e-16
-6.46168328085e-15
-1.18498294838e-13
2.54293945371e-15
1.21031248383e-13
-1.16331930717e-15
-3.91283555459e-15
-1.25581996619e-13
1.81687467941e-15
1.26408464608e-13
-9.26510265844e-16
-1.71783719632e-15
-1.28128477975e-13
-3.2447051446e-15
1.28626973323e-13
2.35544324686e-16
2.50896910426e-15
-3.28162366877e-13
-1.03269937813e-12
5.67549418383e-12
1.13005748414e-12
6.22702573833e-13
-3.26630023677e-13
-3.72092714378e-13
-3.68669709808e-13
-8.60264107038e-13
-5.04323695263e-13
-5.71740071106e-12
5.35245537728e-12
1.00490479179e-12
7.24628343593e-13
-2.93806388495e-13
-1.87859202439e-13
-5.04696346669e-12
4.79293272021e-12
4.46240757576e-13
2.89455580007e-13
-1.11232053315e-14
-1.31664499296e-13
-4.5808997435e-12
4.35985514985e-12
3.48478326389e-13
1.5353973236e-14
2.21320738149e-13
-2.78110400643e-13
-4.06616015547e-12
3.58776750205e-12
7.52667031868e-13
-2.17484714581e-13
4.78363561877e-13
-1.55248382316e-13
-2.82689915459e-12
1.89646904134e-12
-4.52914228197e-13
-1.61950138131e-13
-1.57902635958e-13
-1.62991949769e-13
3.17867107056e-13
4.47077497952e-13
4.56132731761e-13
3.21996578667e-13
-2.53711877222e-13
5.22155735009e-14
-8.01966912774e-14
9.68761001818e-13
-1.12793186475e-12
2.46348052114e-13
7.05325757234e-14
5.18641677052e-14
7.2118872945e-14
1.33700124719e-13
4.98889201827e-13
-2.22655647109e-12
3.1162799213e-12
-1.4512811351e-12
-7.10316378273e-14
1.60031846599e-13
2.01435791476e-13
-3.74212917939e-12
4.09514793703e-12
-5.82661503402e-13
-1.31824887146e-13
1.01162097257e-13
4.35809209737e-14
-4.30190252697e-12
4.40533525227e-12
-1.54526814932e-13
-9.36489253241e-14
5.14809188244e-14
-1.29446945667e-14
-4.46115048403e-12
4.49287105491e-12
-2.0051199644e-14
-5.02055948575e-14
5.66665819105e-15
4.3219295512e-15
-4.54647677369e-12
4.57586090064e-12
-3.16947600424e-14
-8.56174406868e-15
-1.11862358219e-15
4.16442230364e-15
-2.16251575509e-15
-1.06640543756e-12
-7.21154400788e-13
5.79265479568e-12
3.31680547203e-13
6.63224494875e-13
3.15811286896e-11
-1.16689059537e-17
1.73061245117e-12
-9.74364771589e-13
-7.17246643559e-13
-9.76517257954e-13
-6.99631893382e-13
-9.449240973e-13
-7.15965473245e-13
-9.63969104455e-13
-7.11187055649e-13
-6.64187533109e-12
-6.6136741533e-12
-6.69052546624e-12
-6.66184982637e-12
3.39696233041e-11
-2.75121935505e-18
8.32234790588e-13
-4.04366723302e-13
-2.63464975582e-13
-4.02426885031e-13
-2.52082250698e-13
-5.11219473266e-13
-4.23409856041e-13
-5.33807745338e-13
-4.29969759191e-13
3.60474218894e-11
-2.01078179984e-18
3.70446047773e-14
-6.69837044227e-14
4.00754893345e-14
-4.60671708813e-14
7.20109159147e-14
-4.61158474392e-13
-5.78705072047e-13
-4.83887105763e-13
-5.9013571954e-13
8.59406921474e-12
4.55639384975e-18
-9.29706340927e-13
2.96887925248e-13
5.50933737035e-13
4.36043041117e-13
6.01983972593e-13
-1.09957691071e-12
-1.57785358473e-12
-1.13769519744e-12
-1.60262652847e-12
1.11964432141e-11
9.00572588531e-12
1.17127888496e-11
1.03135146888e-12
-2.8947409906e-12
8.34929520341e-12
2.90231560327e-12
-7.94156405564e-13
2.52686969731e-13
-8.55364811733e-13
-1.38747241825e-12
6.44950488855e-13
1.56308723917e-12
-2.1788748689e-13
4.67056161934e-11
-7.41668482083e-18
3.46187673325e-12
-1.61699784573e-12
-7.10395263698e-13
-2.70014251758e-12
-1.72866893542e-12
3.31282556645e-12
3.7557456277e-12
3.37015250645e-12
4.01637669011e-12
-6.14347699767e-12
-2.28373138806e-11
-5.95042007806e-12
-2.29351597522e-11
3.86830261433e-11
-5.30278406989e-17
1.62034502646e-12
-3.50926332886e-13
-1.95078079299e-13
-7.42914917506e-13
-4.80321512847e-13
2.16166622693e-12
1.69324626225e-12
2.40374468843e-12
1.91282869299e-12
3.56051719366e-11
-1.73150130245e-17
5.73956867726e-13
-6.12494265744e-14
-3.26321795245e-14
-1.83829806513e-13
-1.1093435958e-13
7.83798083692e-13
5.36974506844e-13
9.29885577327e-13
6.41963588472e-13
3.45773853012e-11
2.30464685219e-17
1.30419896469e-13
2.25042164791e-14
3.53709154195e-14
-1.3360351797e-14
2.07180141337e-14
2.14114278491e-13
1.48359712007e-13
2.77620431161e-13
1.92088467872e-13
7.84701920572e-12
2.57088119089e-17
-8.66976222682e-15
5.47384543348e-14
5.75264811201e-14
5.13310975657e-14
5.409744504e-14
6.72033436539e-14
7.71700333248e-14
9.26399613772e-14
7.17241266397e-14
8.22970899303e-12
8.77154005972e-12
9.21132854378e-12
7.55397501521e-14
1.04617651918e-13
7.63864499052e-12
-1.01223140452e-14
3.82964919931e-14
-1.06151523439e-12
3.46911295716e-18
5.73672809312e-12
-3.31683335673e-13
6.56467008521e-13
3.15811332679e-11
-9.44936771134e-13
1.73061043676e-12
-9.76513844568e-13
-6.99627277675e-13
-9.74377045068e-13
-7.17252819026e-13
-6.61367079547e-12
-6.64188625583e-12
-6.66184546046e-12
-6.69053354141e-12
-7.15969495901e-13
-9.63976580212e-13
-7.11188914043e-13
3.39696341864e-11
-5.11223945371e-13
8.32233167033e-13
-4.02424126782e-13
-2.52079332553e-13
-4.04371983722e-13
-2.63467330206e-13
-4.23411142243e-13
-5.33809740901e-13
-4.29970364214e-13
3.60474360584e-11
-4.61160610062e-13
3.70347713372e-14
-4.60658430414e-14
7.20116552004e-14
-6.69893354833e-14
4.00715031592e-14
-5.78709840342e-13
-4.83888487583e-13
-5.90139665196e-13
1.11964522146e-11
-1.09957494798e-12
-9.29712785113e-13
4.36049102598e-13
6.0199017108e-13
2.9688680716e-13
5.50930920925e-13
-1.57785249774e-12
-1.13769060328e-12
-1.60262049765e-12
8.59407122743e-12
1.17127981044e-11
9.00573066637e-12
1.02224859547e-12
1.49939322115e-19
1.38749956373e-11
-2.90232156664e-12
-7.98467480217e-13
1.86715121872e-12
-2.89959609342e-18
-1.37790132385e-12
9.90145563913e-12
3.41394698977e-12
3.42661172095e-12
9.95142180167e-12
-1.86392594499e-11
-2.26549940806e-12
-1.99457366341e-12
-2.0034541177e-12
-2.27989564608e-12
-2.3125112551e-15
1.18659321846e-18
-1.32070641844e-11
1.32196687863e-11
-1.0293276801e-14
-3.65320131684e-13
1.24282243226e-18
-1.33444514099e-11
1.34577958522e-11
2.51974446526e-13
4.67055850042e-11
3.31280009855e-12
3.4618469e-12
-2.70013045441e-12
-1.72865427872e-12
-1.61700708716e-12
-7.10391421708e-13
-2.28373028042e-11
-6.1434863303e-12
-2.29351494085e-11
-5.95042354667e-12
3.75572707834e-12
3.37013992964e-12
4.01635706692e-12
3.8683043655e-11
2.16164393541e-12
1.62033996456e-12
-7.42909795084e-13
-4.80313999862e-13
-3.50928388918e-13
-1.95071312309e-13
1.69323731917e-12
2.40370636568e-12
1.91281281454e-12
3.56051841628e-11
7.83786267098e-13
5.73936425386e-13
-1.83834256879e-13
-1.10941998395e-13
-6.12481644635e-14
-3.26196781719e-14
5.3697670625e-13
9.29864867134e-13
6.41954095704e-13
3.45773844611e-11
2.14110678922e-13
1.30377616828e-13
-1.33735643942e-14
2.06964094253e-14
2.24983725083e-14
3.53747014081e-14
1.48347766831e-13
2.776094292e-13
1.92069771219e-13
8.22970946742e-12
6.7200311023e-14
-8.70364537146e-15
5.13187535599e-14
5.40839697835e-14
5.47353892046e-14
5.75205694944e-14
7.84702144883e-12
9.21132335208e-12
8.77153724813e-12
7.71686777745e-14
9.26405183494e-14
7.17222233502e-14
3.66518285349e-14
-1.44778656592e-17
8.1038002824e-12
1.0125230067e-14
7.91229309275e-14
-1.0629025655e-12
7.21161011156e-13
5.80684928169e-12
-1.13005906188e-12
6.64951333986e-13
-9.60073884132e-13
-6.36258540077e-12
6.5325913671e-12
-1.00490365696e-12
8.50032328682e-13
-3.76853228163e-13
-6.49292616119e-12
6.41972825619e-12
-4.46242628222e-13
3.85067609259e-13
-4.07675698354e-14
-6.31825797918e-12
6.19797684244e-12
-3.48480388804e-13
4.83679125238e-14
2.66189293327e-13
-6.06992943428e-12
5.7287911619e-12
-7.52670815093e-13
-2.71952418215e-13
7.42199220539e-13
-5.26698816773e-12
-1.89647297394e-12
-6.68202664184e-13
2.89473510978e-12
1.19464580368e-12
8.79090966753e-13
8.981967413e-13
1.2227958121e-12
1.28532856402e-13
8.55363627526e-13
-5.68736048854e-13
-3.00460131295e-13
-1.14700304234e-13
-6.23058466498e-13
-1.03821201244e-12
3.21121672137e-12
1.12791988048e-12
6.34939688684e-13
-7.88149517864e-15
-4.77960571267e-12
5.3509246929e-12
1.45127279338e-12
1.46956303863e-13
9.97125843693e-14
-5.86496148038e-12
5.99582098705e-12
5.82649992001e-13
-2.9428741695e-14
8.73500941094e-14
-6.14142684103e-12
6.17691974012e-12
1.54520903761e-13
-6.32597139434e-14
5.46148054576e-14
-6.23662200456e-12
6.28299680957e-12
2.00463718191e-14
-5.38603658608e-14
1.78067335882e-14
-1.04624231168e-13
-6.33174091743e-12
6.39272078265e-12
3.17028983864e-14
-5.86526922428e-15
-1.33420631019e-13
3.28163464097e-13
-3.15286989111e-13
9.49249223972e-14
1.27561920717e-12
-1.62973396171e-13
-9.42545728428e-13
5.04323766165e-13
2.54685200975e-12
3.79203076267e-13
-1.30854501041e-13
-1.00180920087e-13
-7.63616899705e-14
-5.40356393844e-13
-9.38519517498e-13
-5.38586599996e-13
-4.36438365504e-14
1.87861761283e-13
-2.25219059185e-12
2.0581555066e-12
1.17349172374e-13
-3.12304496374e-14
-2.06218071686e-14
-1.56797703966e-14
-1.00138345145e-15
1.31666235518e-13
-1.92316762369e-12
1.7888298057e-12
-8.53516808551e-15
5.19340762341e-15
2.21308182368e-15
4.80146927006e-15
3.04808369981e-14
2.78108568142e-13
-1.61782943397e-12
1.33800108093e-12
-1.12282412556e-13
3.66642757668e-14
2.18066427242e-14
2.50503374809e-14
5.90409664518e-14
1.5524680004e-13
-2.87871359158e-13
2.11138670313e-13
-7.15729124827e-14
-6.59831195111e-14
-2.47457837396e-14
-5.2210182758e-14
4.51175897101e-14
-1.16072395953e-14
1.56293464578e-14
2.78180883624e-14
3.52069000285e-14
-4.98875565239e-13
-6.44158458041e-13
1.12520714009e-12
-9.2825314838e-14
3.60038471493e-14
1.95813931352e-14
1.98593889904e-14
3.13809611358e-14
-2.01421379332e-13
-1.47704888665e-12
1.67626584667e-12
-9.40360741218e-14
2.98722266959e-14
1.79947578202e-14
1.69924995742e-14
1.78691118176e-14
-4.35783737864e-14
-1.7864754733e-12
1.83152236335e-12
-5.65417810922e-14
1.72324785695e-14
1.03478489643e-14
9.6240067206e-15
1.0098958414e-14
1.29369956219e-14
-1.8448024651e-12
1.82961988633e-12
-3.21181270173e-14
1.1089296274e-14
6.36487546823e-15
6.81060245606e-15
-1.90190373441e-15
-5.66813413268e-15
-5.69654036375e-13
6.09132915578e-13
-3.11294325508e-14
-7.81146942274e-16
-3.24563731815e-13
-2.85403352606e-13
5.54497733112e-12
1.11279811534e-12
5.80942564756e-15
-3.24624195405e-13
-3.64602915426e-13
-3.64390599433e-13
-4.01483669738e-13
-4.90786995319e-13
-5.70970992041e-12
5.59600144424e-12
9.9820373512e-13
7.77540547344e-15
-1.77845501552e-13
-1.95882590583e-13
-5.53915576353e-12
5.44841148926e-12
4.64028719685e-13
4.43647052917e-16
-1.04374697634e-14
-1.36075471156e-13
-5.3270218204e-12
5.11414837848e-12
3.63402131734e-13
-4.01574729965e-15
1.36141198492e-13
-2.78300627828e-13
-4.76541350949e-12
4.14266897995e-12
7.71051126807e-13
-6.14716596197e-15
2.7075899171e-13
-1.52348351652e-13
-3.17774390722e-12
1.88858563878e-12
-5.77298373845e-15
-1.57627423506e-13
-1.52047184033e-13
-1.57175269731e-13
4.81790118562e-13
3.40085026593e-13
4.81685454582e-13
3.39809980963e-13
-1.52472945876e-13
4.9838057938e-14
-4.98865071262e-14
1.12040466535e-12
-1.17203139544e-12
7.26589693708e-15
7.38688920291e-14
4.94059320529e-14
7.36073339428e-14
1.149243549e-14
6.33551579977e-13
-2.71712773891e-12
3.8447059122e-12
-1.77126491813e-12
-1.35726777818e-15
6.628892325e-14
2.91718623647e-13
-4.6435858534e-12
5.07893638814e-12
-7.92906865247e-13
-4.51210252197e-16
5.43458802883e-14
8.05100149714e-14
-5.33014139158e-12
5.44182656207e-12
-2.46535746647e-13
-5.31360465999e-18
3.29785208072e-14
-1.32144881762e-14
-5.49743296209e-12
5.51747052645e-12
-3.81897800809e-14
-1.6118148832e-15
5.32428534098e-16
1.25948242246e-14
-5.55900056069e-12
5.56708850463e-12
-5.89637586084e-15
-3.06947097558e-15
-6.41402339059e-15
6.3884972431e-16
-6.47465754117e-15
-3.16841275982e-13
-7.13461676027e-13
5.6975077763e-12
3.28603091052e-13
4.19208395413e-15
3.36718905786e-11
-8.72472032455e-18
-1.65060697329e-12
-9.59295922223e-13
-7.18142052079e-13
-9.57913326892e-13
-7.17942309438e-13
-6.74581318388e-12
-6.72444140821e-12
-6.7441534819e-12
-6.72298294966e-12
3.72884564947e-11
2.48400922326e-18
-8.00327241409e-13
-5.4999418481e-13
-4.41275903778e-13
-5.5062942069e-13
-4.42138188228e-13
3.95279028941e-11
-7.40875093305e-18
-4.85676435107e-14
-4.88726817992e-13
-5.87283961788e-13
-4.89692418127e-13
-5.88146990204e-13
9.40700438374e-12
-3.49472284921e-18
8.89799322867e-13
-1.13271304487e-12
-1.59545391963e-12
-1.13354488093e-12
-1.59625825473e-12
1.21754314992e-11
9.40783302574e-12
1.21761148976e-11
-2.94374054489e-12
4.96586723681e-13
8.88232298733e-12
2.97916276575e-12
-7.33226430478e-15
9.6705991253e-14
-8.57489377655e-13
-1.43095130325e-12
6.55309335941e-13
1.5851144143e-12
-4.86886928412e-14
4.89195447637e-11
-5.02136716821e-17
-3.33848007321e-12
3.38737960206e-12
4.074058377e-12
3.38604964431e-12
4.07467904972e-12
-5.80660985578e-12
-2.27163749497e-11
-5.80226655924e-12
-2.27160793032e-11
4.30350488656e-11
-7.0675380712e-17
-1.6142878576e-12
2.51948193611e-12
2.03895485609e-12
2.52062894869e-12
2.04008649754e-12
4.07007359933e-11
-3.50656981839e-17
-5.752954206e-13
1.01922111449e-12
7.21754792125e-13
1.02016616844e-12
7.22432971808e-13
3.98444673941e-11
-7.27318066205e-18
-1.29653406646e-13
3.24361828797e-13
2.33403955067e-13
3.24876661522e-13
2.33668862247e-13
9.60741995375e-12
8.2655317364e-18
2.20111716509e-15
1.14292375504e-13
9.66921166018e-14
1.14386711833e-13
9.65164744489e-14
1.00962655356e-11
9.60972725444e-12
1.00982079973e-11
5.28749931216e-14
6.44367272859e-14
9.48018906884e-12
1.23921012804e-14
-2.53997733813e-15
-3.14948024231e-13
3.48803686295e-18
5.63992931031e-12
-3.28604668327e-13
3.6198935641e-15
3.36718965689e-11
-9.5930538718e-13
-1.65060394802e-12
-6.72443865619e-12
-6.74582306914e-12
-6.72297957943e-12
-6.74416160298e-12
-7.18143305898e-13
-9.57920667176e-13
-7.17945076357e-13
3.72884616334e-11
-5.49997734063e-13
-8.00327837878e-13
-4.41274266347e-13
-5.50631022178e-13
-4.42137112778e-13
3.95279208811e-11
-4.88727370933e-13
-4.85672436961e-14
-5.87288049074e-13
-4.89693665331e-13
-5.88149135672e-13
1.21754364657e-11
-1.1327111174e-12
8.89806602285e-13
-1.59545230316e-12
-1.13354344028e-12
-1.59625302628e-12
9.4070067778e-12
1.21761203891e-11
9.40783783218e-12
5.06836616352e-13
2.33896673466e-18
1.46550431399e-11
-2.97916729173e-12
-7.27825684964e-15
7.18900273324e-13
-1.17397521243e-18
-6.68183272257e-15
3.46926564909e-12
1.0054290981e-11
3.4678118274e-12
1.00593225822e-11
-1.91194261763e-11
-2.02434206942e-12
-2.29741718129e-12
-2.0238703589e-12
-2.29785157355e-12
1.34162860023e-14
8.56981400725e-19
-1.33991805327e-11
1.33931813103e-11
-7.41792023459e-15
-6.28026085696e-14
1.73406336658e-18
-1.34608636781e-11
1.34943795873e-11
2.92849652228e-14
4.89195237085e-11
3.387351761e-12
-3.3385026341e-12
-2.27163642635e-11
-5.80661481457e-12
-2.2716066435e-11
-5.80227525657e-12
4.07404124209e-12
3.38603196828e-12
4.07465552782e-12
4.30350591738e-11
2.51944785442e-12
-1.61429525381e-12
2.03894983873e-12
2.52058284717e-12
2.04006605965e-12
4.07007656194e-11
1.0192069454e-12
-5.75303297216e-13
7.21759512229e-13
1.02013763605e-12
7.22428987372e-13
3.98445114512e-11
3.24368583942e-13
-1.29664176311e-13
2.33398044914e-13
3.24868549386e-13
2.3365661592e-13
1.00962544766e-11
1.14296810589e-13
2.16884345244e-15
9.60742714752e-12
1.00982006096e-11
9.60972147415e-12
9.66932988203e-14
1.14391571338e-13
9.65150227999e-14
4.23568462046e-14
-1.18890292272e-18
1.0068513197e-11
-1.2367249513e-14
-2.26973067011e-15
-3.12425192817e-13
7.13469341398e-13
5.70665437921e-12
-1.11279891677e-12
5.10038830994e-15
-4.79792847694e-13
-6.46957768446e-12
6.97665217751e-12
-9.98204628705e-13
1.16147236665e-14
-2.4063922555e-13
-7.25841098503e-12
7.40896973683e-12
-4.64030208112e-13
4.11527965696e-15
-3.39688911769e-14
-7.43827583669e-12
7.3497389949e-12
-3.6340261964e-13
-2.81950534524e-15
1.63413424293e-13
-7.16949994853e-12
6.65125447254e-12
-7.71053884499e-13
-6.82556048544e-15
3.93734239649e-13
-5.94112643453e-12
-1.88858593663e-12
-7.68832062533e-15
2.94373538025e-12
9.55914155662e-13
1.2936331807e-12
9.54900048401e-13
1.29548354513e-12
5.14916310151e-14
8.57487644912e-13
-5.8518040304e-13
-2.9776764381e-13
-2.60312297491e-14
-3.54013012553e-13
-1.02878882391e-12
3.58899664331e-12
1.17201940776e-12
9.13867378034e-15
-1.173977355e-13
-5.6432372094e-12
6.50939562734e-12
1.77126223352e-12
-5.50559212369e-16
6.67225358418e-15
-7.24204311541e-12
7.46161665922e-12
7.92896696557e-13
7.48683357803e-17
3.67574777988e-14
-7.66295380897e-12
7.70345883902e-12
2.4652045107e-13
5.58384649835e-16
3.51425431892e-14
-7.7707954089e-12
7.81296102564e-12
3.819190786e-14
-1.22673382693e-15
1.79847463341e-14
-6.44420951492e-14
-7.86650536173e-12
7.91021780205e-12
5.91066804989e-15
-3.16576232725e-15
-2.84860975608e-14
3.24564362319e-13
-3.12465726616e-13
1.40030126482e-14
1.25238445966e-12
-9.15103203436e-13
-2.01168073385e-13
4.90787942144e-13
2.57794065043e-12
-1.08591708537e-15
-5.20492511267e-13
-9.11971252266e-13
-5.18907626663e-13
-7.14233937696e-14
1.95883306609e-13
-2.40989807205e-12
2.28900415134e-12
-3.56599201182e-15
5.45015599051e-15
1.3607449162e-13
-2.18776950555e-12
2.04988516531e-12
-3.64030638076e-15
7.04923714531e-14
2.7829741406e-13
-1.84819703684e-12
1.50336356285e-12
-3.95631105189e-15
3.94325096868e-14
1.52346773869e-13
-3.1962998046e-13
2.28354497809e-13
-7.9819386372e-14
-2.06855628758e-14
-1.75906296218e-14
-4.98327628768e-14
6.14196793375e-14
-2.09647117825e-14
1.72467319284e-14
9.7239657525e-15
4.34558959555e-14
-6.33547964045e-13
-7.8286312456e-13
1.37315998961e-12
-2.04790932361e-16
5.27557328245e-14
-2.91719759847e-13
-1.80723222922e-12
2.04598050616e-12
2.15752148663e-16
3.42328572717e-14
-8.05162387196e-14
-2.17582344918e-12
2.22221399756e-12
-1.07169324522e-16
2.01497477048e-14
1.32184825121e-14
-2.22912868134e-12
2.19702617529e-12
-1.26572753611e-15
3.25979236622e-15
-5.33907105111e-16
-7.00656707257e-13
7.49588145332e-13
-5.02382744787e-14
-1.42107146039e-15
-3.23580890278e-13
2.71449787601e-13
5.59355841825e-12
1.11135595585e-12
-6.02977887348e-13
-3.23043120415e-13
-3.63545669068e-13
-3.63216528989e-13
3.85896030094e-13
-5.0452069515e-13
-5.73653342587e-12
5.55944211112e-12
1.00359627487e-12
-7.07880295709e-13
1.7808362115e-13
-2.0191265701e-13
-5.42842154522e-12
5.28228455448e-12
4.61974913762e-13
-2.92008886947e-13
1.87361207242e-14
-1.40702778434e-13
-5.12704528638e-12
4.90684994633e-12
3.65989681802e-13
-2.38276825764e-14
-1.24446064605e-13
-2.87047837783e-13
-4.57322906174e-12
3.99356177434e-12
7.83192831854e-13
2.07968359747e-13
-2.59987265969e-13
-1.56274226088e-13
-3.09002171054e-12
1.91669140164e-12
4.44370003764e-13
-1.61246516878e-13
-1.56846144538e-13
-1.62240931312e-13
4.75441230973e-13
3.36614966971e-13
4.76741375359e-13
3.3675791139e-13
1.38061980929e-13
5.16807564846e-14
-6.4779253329e-14
1.08814599519e-12
-1.18370352326e-12
-2.31943551254e-13
7.50853207537e-14
5.23229051357e-14
7.5129242325e-14
-6.92314380149e-15
6.09163669526e-13
-2.59311582693e-12
3.64087617802e-12
-1.71033508786e-12
6.03342141657e-14
-6.53320323781e-14
2.71066713209e-13
-4.37803196088e-12
4.78070486596e-12
-7.38157787876e-13
1.29750207802e-13
-5.4662613816e-14
7.07933985946e-14
-5.01362452264e-12
5.12089659421e-12
-2.17473544288e-13
9.40706927666e-14
-2.98480325017e-14
-1.45079836654e-14
-5.1768062705e-12
5.20268227538e-12
-2.84258609846e-14
4.69058739563e-14
3.53503139746e-16
-6.48187106122e-15
-5.24841115798e-12
5.26353159329e-12
7.51746196464e-16
2.86167968075e-15
-6.56801440705e-15
3.62667839632e-16
-6.40059415269e-15
3.08305676782e-13
-7.11022585279e-13
5.72920188479e-12
3.2792607707e-13
-6.54411054049e-13
3.15491400048e-11
-1.38366457274e-17
-9.59609572098e-13
-9.57674233092e-13
-7.09683072526e-13
-9.33534316668e-13
-7.1427421465e-13
-6.68142819325e-12
-6.65402249296e-12
-6.62972220544e-12
-6.60334531559e-12
-7.05075022404e-13
-9.63077631509e-13
-6.88305242141e-13
3.39697860991e-11
-6.02440412477e-18
-3.99490217572e-13
-5.36186866818e-13
-4.33054405711e-13
-5.1600286517e-13
-4.29195705242e-13
-2.61038291448e-13
-3.97130134189e-13
-2.48902090737e-13
3.60656163494e-11
-7.6136222863e-18
-6.96840738899e-14
-4.87436806266e-13
-5.93193706982e-13
-4.6724744796e-13
-5.83999409179e-13
3.61227024571e-14
-4.79103217394e-14
6.89477037054e-14
9.0101242902e-12
8.34391030346e-18
2.90143276584e-13
-1.14047633743e-12
-1.60506033399e-12
-1.10440024127e-12
-1.58210880074e-12
5.43764239656e-13
4.29983266945e-13
5.95367330428e-13
1.17168308864e-11
8.59983394886e-12
1.12014296109e-11
-2.97496866791e-12
-4.82376101312e-13
8.70524909672e-12
2.97985116236e-12
7.82368331723e-13
-9.49279743441e-14
-8.60309710322e-13
-1.42223013799e-12
6.53184483975e-13
1.58595874418e-12
1.38325043914e-13
4.67073409472e-11
-6.18854131002e-17
-1.7005848265e-12
3.37342049154e-12
4.02284101156e-12
3.3200320607e-12
3.77115381359e-12
-5.93272210608e-12
-2.29357939248e-11
-6.07971034272e-12
-2.28009493711e-11
-7.60095428467e-13
-2.61958629393e-12
-1.70388206532e-12
3.87134465494e-11
-6.68150142137e-17
-3.69455244635e-13
2.40581780079e-12
1.91595466198e-12
2.16960554259e-12
1.69904582429e-12
-2.08769302796e-13
-7.48833065996e-13
-4.83647926338e-13
3.56394062876e-11
-4.21116929399e-17
-6.62773433195e-14
9.31467143695e-13
6.43177485134e-13
7.87368131252e-13
5.39388222276e-13
-3.63175616234e-14
-1.86944279608e-13
-1.13085339073e-13
3.46130637493e-11
-2.73851631015e-17
2.1258766928e-14
2.78340924713e-13
1.92260225491e-13
2.15657426498e-13
1.48903155009e-13
3.43452751646e-14
-1.41726924458e-14
2.00612307115e-14
8.78052518499e-12
-3.86624534795e-17
5.31483142589e-14
9.2283380528e-14
7.11520036151e-14
6.68346020195e-14
7.5993621869e-14
9.21934165495e-12
7.85832831616e-12
8.23956286039e-12
5.54429596985e-14
5.00553603359e-14
5.24370029522e-14
-4.74233488963e-14
3.35117510577e-14
8.82182158557e-12
1.57682466949e-14
-4.31849233949e-14
3.07859722257e-13
2.45581273035e-18
5.66974028693e-12
-3.27928463235e-13
-6.49674002398e-13
3.1549147094e-11
-9.57681609606e-13
-9.63076384205e-13
-6.65401974179e-12
-6.68143575079e-12
-6.60334298373e-12
-6.62973007911e-12
-7.0968331909e-13
-9.33541371448e-13
-7.1427801272e-13
-6.88300654551e-13
-9.5961497992e-13
-7.05079755969e-13
3.39697921425e-11
-5.36188436128e-13
-3.97128551564e-13
-4.33053057586e-13
-5.16004053207e-13
-4.29195322902e-13
-2.48897737975e-13
-3.99492330293e-13
-2.61038553176e-13
3.60656421062e-11
-4.87438622269e-13
-4.79076414804e-14
-5.93196314745e-13
-4.6724750546e-13
-5.83997389878e-13
6.89496376882e-14
-6.96838301312e-14
3.61247194117e-14
1.17168361442e-11
-1.14047668893e-12
4.29987356705e-13
-1.60505875031e-12
-1.10439871226e-12
-1.58210334017e-12
5.95370418306e-13
2.90141964134e-13
5.4376615132e-13
9.0101289867e-12
1.12014378013e-11
8.59983939887e-12
-4.92672352402e-13
4.1041920685e-18
1.44024736407e-11
-2.9798580544e-12
7.86893048519e-13
-7.0632321137e-13
-4.73702550679e-19