/*--------------------------------*- C++ -*----------------------------------*\
  =========                 |
  \\      /  F ield         | OpenFOAM: The Open Source CFD Toolbox
   \\    /   O peration     | Website:  https://openfoam.org
    \\  /    A nd           | Version:  7
     \\/     M anipulation  |
\*---------------------------------------------------------------------------*/
FoamFile
{
    version     2.0;
    format      ascii;
    class       volVectorField;
    location    "10";
    object      U;
}
// * * * * * * * * * * * * * * * * * * * * * * * * * * * * * * * * * * * * * //

dimensions      [0 1 -1 0 0 0 0];

internalField   nonuniform List<vector> 
5218
(
(0.0394618100575 0.00621334884487 0.00618352577447)
(0.0274208630505 0.00437523542737 0.0021793203628)
(0.0184422007695 0.00112430564876 0.000491880548748)
(0.0153381643263 0.000951712404991 -4.5427786725e-05)
(0.0133920619479 0.00246701851813 -0.000487008130649)
(0.00865474839006 0.0065222677843 -0.000994620005747)
(-0.000904489874428 -0.00154770594898 0.000311464348838)
(0.00691571423155 -0.00186651005329 -0.000432247490332)
(0.011878948305 -0.000427153035878 -0.000358398205524)
(0.0138266804958 6.26677320909e-05 -0.000190709523441)
(0.0144321784563 9.06187185652e-05 -5.21125774633e-05)
(0.0144850754238 -0.000202390086313 0.000354655438685)
(0.0388467982016 0.00124208984075 0.00607162983422)
(0.0295775514324 0.00319224212964 0.00238016475909)
(0.0245985307461 0.00161619441113 0.000671457007697)
(0.0236050933974 0.00181141777258 5.47475357563e-05)
(0.026260754517 0.00535068719155 -0.000640414534911)
(0.0359417292629 0.0200256021216 -0.00292293520693)
(0.0150276955834 0.0218061271636 -0.000726209990574)
(0.0209711881157 -0.021922407928 0.0033687302995)
(0.0214277785172 -0.00670737953269 6.16158548777e-05)
(0.0204687460134 -0.00119937827102 -8.89759580532e-05)
(0.0207096116568 6.54281214702e-05 -8.50015060298e-05)
(0.0211896468928 0.000158475152765 -4.01401008565e-05)
(0.0211963193123 2.74975234127e-05 0.000423043824093)
(0.0387678084176 -0.000147725424747 0.0060762640603)
(0.0292589577499 -0.00110617206957 0.00231814005747)
(0.025322908293 -0.000600904071854 0.000627381679934)
(0.0253866217908 -0.000727915784003 7.18496696528e-06)
(0.0313996856669 -0.00242737798369 -0.000793215065476)
(0.0568008538532 -0.0107032880422 -0.00231111037489)
(0.16391333885 -0.0700878096749 -0.00560076095653)
(0.306514840489 -0.00727830010197 0.000665651761961)
(0.271369206697 0.0126441221083 0.00947331842327)
(0.0666893373343 0.0248665349306 0.00338665177216)
(0.0317176276546 0.00417466934677 0.000430308098432)
(0.0229023804567 0.000603240813045 0.000135776219184)
(0.0218128424886 -2.75978143667e-05 8.47779223893e-06)
(0.0222121117276 -7.39758418795e-05 -4.19654693093e-06)
(0.0222325944478 -4.16380821324e-05 0.000489724082481)
(0.0389200801698 -0.00183961491639 0.0060490987129)
(0.0296447309177 -0.00460602804925 0.00237780747048)
(0.0227198677251 -0.00194680389789 0.00060873762164)
(0.020323984678 -0.00190333530291 -2.60961622254e-05)
(0.019954576319 -0.00491124197184 -0.000606638630093)
(0.0197906419251 -0.0142403805951 -0.00162301446622)
(0.00421521363486 -0.00827744756117 -0.00018410508766)
(0.00329433395004 0.00717943667254 0.00102389829765)
(0.0127926709382 0.00458682219845 -0.000376900126386)
(0.0166118595028 0.0010747749248 -0.000345188602386)
(0.0181605602345 -2.25563637729e-05 -0.000209481120796)
(0.0187863815595 -0.000127209184329 -6.82688219379e-05)
(0.0187670042203 7.31304096613e-05 0.000459770095682)
(0.0390213697255 -0.00890968042157 0.00627098862505)
(0.0130306453132 -0.00188581027845 0.000472753739368)
(0.00688833912976 -0.000277703226984 8.34580988265e-05)
(0.00547241464241 -0.000220794667761 -3.13766035848e-05)
(0.00468549236054 -0.000497071473555 -0.000163391724544)
(0.00252528933865 -0.0013862944846 -0.000439518271229)
(-0.00103606878509 0.00013321928469 7.43501784629e-05)
(0.00159612969211 0.000254617668486 -4.83151629138e-05)
(0.00392890614225 -4.18805044956e-05 -8.80745846146e-05)
(0.00481659687005 -0.000116757254455 -5.98356245316e-05)
(0.00508567477183 -0.000105079625979 -2.39810986412e-05)
(0.00520447323496 1.26424145962e-05 8.35479425368e-05)
(0.0530892745068 0.0147676573675 0.00817871828421)
(0.0553468820121 0.00913360216584 0.00858713618099)
(0.0490626056866 0.00344181595678 0.003228202222)
(0.0447939864657 0.00252675866919 0.000143244957782)
(0.038906366981 0.00533801892445 -0.00244904931574)
(0.0230484129531 0.0119666163727 -0.0051032583016)
(0.00360346250573 -0.00537132838995 0.00285890192778)
(0.0271289193622 -0.00925984123652 -0.00106020577809)
(0.0394841098854 -0.00390151019465 -0.00161532845576)
(0.0437498617832 -0.00110850520378 -0.00113208055824)
(0.0450389104698 -0.000127087288695 -0.00063199393345)
(0.0460904081209 -0.000256194564877 -0.00010434570942)
(0.0525816180163 0.00517641664092 0.00867347317783)
(0.0749096357605 0.00572125792583 0.00885466254723)
(0.0827151901204 0.00383584491407 0.00428996808488)
(0.087151879892 0.00425862277128 0.000504672532488)
(0.0947901126032 0.0122630396327 -0.00461693551615)
(0.0838387272912 0.0349535794316 -0.00975470474559)
(0.0403542982625 0.0479500284323 -0.0094676613988)
(0.119584594891 -0.0615496838058 0.0168864771671)
(0.0997687662439 -0.0265443910575 0.00717509939221)
(0.0906275983286 -0.00920579110472 0.00241745654248)
(0.0866437195361 -0.00280180297011 0.00031156756657)
(0.0871890285415 -0.00111242924816 -0.00062440343733)
(0.076529680529 -0.000605002001278 -0.000204537070512)
(0.0522821761493 -0.00160738301011 0.00860926388843)
(0.0749096057775 -0.00572112891885 0.0088546551652)
(0.0827151440005 -0.00383573307115 0.00428995759268)
(0.0871518444151 -0.0042586188213 0.000504669238862)
(0.0947901104487 -0.0122631007548 -0.00461694094052)
(0.122212616275 -0.017490765748 -0.00982252390683)
(0.23478680926 -0.106286205943 -0.0168423712155)
(0.533122304753 -0.0253321236329 -0.000250072082316)
(0.499580075229 0.0190166436759 0.0121917143926)
(0.119584590872 0.06154949178 0.0168864120269)
(0.099768831356 0.0265440989235 0.00717506405941)
(0.0906276998901 0.00920571552405 0.00241745020097)
(0.0866437660986 0.0028018853381 0.000311592971001)
(0.0871890229579 0.00111265935748 -0.000624375446543)
(0.081435096069 0.000418816242922 0.000183432339956)
(0.0528985966294 -0.00921392141463 0.00864979974406)
(0.0651089223064 -0.0111516529797 0.00986193676653)
(0.0647246306395 -0.00580555883243 0.00424516928421)
(0.0627883792442 -0.00470867985055 0.000498366786262)
(0.0597845237764 -0.00973968367396 -0.00302781801763)
(0.0496838103186 -0.0251571538884 -0.00769829804056)
(0.0131326712581 -0.0199277242925 -0.00495765283971)
(0.0231705427015 0.018070763268 0.00705391646685)
(0.0505135161352 0.0188100371651 0.00105698391185)
(0.0590779372487 0.00715416088609 -0.000637279392162)
(0.0615650675967 0.00180366692854 -0.00088368980718)
(0.0628937873059 0.000372995848851 -0.000724845989773)
(0.0641814754128 0.0010101179762 -0.000180927749723)
(0.0499838589339 -0.0133636626799 0.00442486297347)
(0.0278512047158 -0.00134829168696 0.00485542262905)
(0.0213596982458 -0.00046481405539 0.0012823273597)
(0.0185952230377 -0.000305549287535 -0.00011978427511)
(0.0151376047624 -0.000689596799234 -0.00129125957499)
(0.010828741107 -0.00432202698312 -0.00262018979295)
(-0.00150644643319 0.000859878305813 0.00111639181925)
(0.00901032618494 0.00100125309814 -0.00122072738017)
(0.0159769554772 0.000412485662335 -0.00112879581318)
(0.018259362902 0.000113622833805 -0.000663083802596)
(0.0185571905694 -9.31273419983e-05 -0.00040393459167)
(0.024660181415 -0.00080522165487 -4.61917675436e-05)
(0.0522526306894 0.0145425397023 0.00140177701119)
(0.0564123441394 0.00898083812035 0.00211169677466)
(0.0550026432347 0.00354885181882 0.000967340381429)
(0.0524637745694 0.00260199995721 4.36994933039e-05)
(0.045372748259 0.00537596990094 -0.000767373745286)
(0.0252399383771 0.0116405200746 -0.00147233479068)
(0.00377075444086 -0.00549092176458 0.000834157892253)
(0.0334169422411 -0.0115394085712 -9.4961213665e-06)
(0.0490250314259 -0.00538720395277 -0.000335663618415)
(0.0541044121001 -0.00177997082845 -0.000300080849745)
(0.0553737908719 -0.000269370857418 -0.000199860483063)
(0.0561499152402 -0.000121985668056 -0.000101191233209)
(0.0517190548609 0.0051364026841 0.00157197984335)
(0.0777814768286 0.00576221813067 0.000107794742629)
(0.089978715483 0.00401899842544 4.86854493472e-05)
(0.096361737784 0.00431354273851 -1.02384149603e-05)
(0.102926484663 0.0123362178935 -5.09323549414e-05)
(0.0913148840932 0.0357901663377 -0.00244575728525)
(0.0411840475358 0.0483489056194 -0.00285741940606)
(0.120317965584 -0.0634048615146 0.000179676935112)
(0.108731347419 -0.0294386262959 5.07116619908e-05)
(0.103049216621 -0.0110807708945 1.78555083919e-05)
(0.0995973973266 -0.0036969464486 5.572331194e-06)
(0.100519743647 -0.00150292426576 -9.99054999153e-06)
(0.0954173657154 -0.000339244154267 -2.04375723672e-05)
(0.0513844157639 -0.00159272754652 0.00156346962456)
(0.0777814468026 -0.00576207542659 0.000107785411534)
(0.089978673384 -0.00401886616356 4.8675441268e-05)
(0.0963617068338 -0.00431354484481 -1.025392098e-05)
(0.102926486996 -0.0123362948415 -5.09340164949e-05)
(0.131957859091 -0.0179075766876 -0.00245978231213)
(0.238538248893 -0.10752415874 -0.00369816639854)
(0.540548768169 -0.0262123981235 -0.000409858378568)
(0.50349089561 0.0188838757092 0.00177569350911)
(0.120317923307 0.0634045348713 0.000179617136438)
(0.108731395808 0.0294382285958 5.06788828469e-05)
(0.103049364542 0.0110806693617 1.78178960436e-05)
(0.0995975586638 0.003697053246 5.529214144e-06)
(0.100519795062 0.00150319435678 -1.00326611902e-05)
(0.101725364465 0.000406603672429 5.61429684974e-05)
(0.0520922113072 -0.00911184876168 0.00154602074679)
(0.0678095790585 -0.0111538384643 0.00253492242252)
(0.0737468496507 -0.00615654177424 0.00129548107765)
(0.0743913456289 -0.00501708415202 0.000164567733341)
(0.0702084577576 -0.0101469516475 -0.000900438023653)
(0.0547184917738 -0.0253043197139 -0.00211057860292)
(0.0132631105579 -0.0198166078675 -0.00154897586971)
(0.0249730492285 0.0189323591318 0.00173226211065)
(0.0609291946299 0.022891416797 0.000624113496218)
(0.0734212358614 0.00980521228084 -1.89809636154e-05)
(0.0767902275201 0.00293177235773 -0.000195626807537)
(0.0782260329379 0.00068539400884 -0.000195128181822)
(0.0795448814223 0.000696768265243 -0.000117423347866)
(0.0496420197183 -0.0131181632105 0.00082153903798)
(0.0273139523765 -0.00119012808833 0.00101873886594)
(0.0234132326625 -0.000484345627235 0.000374989105164)
(0.0212915463769 -0.000293751956746 -4.22610397037e-05)
(0.0171941174573 -0.000635431027982 -0.000399029988767)
(0.0119578549204 -0.00450950555939 -0.00119269054901)
(-0.00212308852697 0.000837948250018 0.000540597975141)
(0.0110010408963 0.00131935071293 -0.000207202075355)
(0.0195325656299 0.000647187076933 -0.000278679561289)
(0.0221968332686 0.000234044590725 -0.00019117591876)
(0.0223617358034 -0.000100686491886 -0.000118633430015)
(0.0305098349292 -0.00140666714662 -8.57307231464e-05)
(0.0525276789105 0.0145092676397 -0.00423776532655)
(0.0564185429409 0.00913581927407 -0.00574507412583)
(0.0535650707217 0.00362485129916 -0.00256956115946)
(0.0503693412574 0.00266686804503 -0.000241659066734)
(0.0436035950032 0.00549504915557 0.00181380059611)
(0.0247466881531 0.011914710061 0.00377017550791)
(0.0038443093773 -0.00557589273162 -0.00207935310888)
(0.0317230475409 -0.0110632046748 0.000200354560144)
(0.0461631205319 -0.00500595158462 0.00100393923738)
(0.0509030029882 -0.00158474771574 0.000831019105136)
(0.0521834177419 -0.000209381185758 0.000461123276754)
(0.053074668568 -7.52076497855e-05 7.28435392042e-05)
(0.0519752393195 0.0051220855078 -0.00472716390246)
(0.0747810992966 0.00567565947893 -0.00865703583185)
(0.0826770721765 0.00384226676107 -0.00422119736827)
(0.0871855606128 0.00427822381122 -0.000538788581011)
(0.0948444790269 0.012282754082 0.00451955391706)
(0.0887771064466 0.0358994152027 0.00694321887823)
(0.0409895390762 0.048434794971 0.00474291138829)
(0.119565260696 -0.0618342737828 -0.0167943200157)
(0.0997681179459 -0.0265774961454 -0.00728172166571)
(0.0907037522771 -0.00920540046265 -0.00247084272345)
(0.086727171604 -0.00280007796049 -0.000334533132381)
(0.0872785829171 -0.00110875011633 0.000591354658302)
(0.088900359555 -0.000201593794549 0.000379835924567)
(0.0516414188325 -0.00159016453085 -0.00469930278428)
(0.0747810834561 -0.00567555791792 -0.00865703599391)
(0.082677034891 -0.00384218446673 -0.00422119724822)
(0.0871855258396 -0.00427824189093 -0.000538789866145)
(0.0948444932779 -0.0122828400256 0.00451954695331)
(0.128766701127 -0.01794339196 0.00703454333899)
(0.237602217357 -0.107299803278 0.010602436426)
(0.539688824289 -0.0261313000255 0.000597393937231)
(0.503472998375 0.0189002388811 -0.00333567215197)
(0.119565216895 0.0618339514715 -0.0167943246045)
(0.0997682219264 0.026577127477 -0.00728170239635)
(0.0907038722828 0.00920524515005 -0.00247085512144)
(0.086727290955 0.00280005509237 -0.000334593882074)
(0.0872786984205 0.00110890734495 0.000591301080127)
(0.094676095028 0.000309777248481 0.000147112104729)
(0.0523730196477 -0.00908995737425 -0.00466886203471)
(0.0674425170473 -0.0110852172993 -0.00682644949129)
(0.0713935585043 -0.00602951765503 -0.00341380565035)
(0.0710744410814 -0.00502268325896 -0.000568706402445)
(0.0672269843841 -0.0103545263432 0.00222262144163)
(0.0534185802621 -0.0256654593986 0.00552942929184)
(0.0132529004271 -0.0199161400148 0.00249196140909)
(0.0250881789268 0.0192038471532 -0.00528737756004)
(0.0581596450482 0.0222473946841 -0.00185585008811)
(0.0689911008586 0.00919020421933 2.47977650846e-05)
(0.0719096547368 0.00260522854541 0.000543751648713)
(0.0732744569042 0.000550873103494 0.000533918900413)
(0.0746502610661 0.000456184435487 0.000126579707672)
(0.0496839427342 -0.0130451870998 -0.00139040193805)
(0.0276677553693 -0.00128125639327 -0.00311896060646)
(0.0230829737971 -0.000525659860993 -0.00116193013743)
(0.0206533110186 -0.000318829547444 -2.28561459147e-05)
(0.0167019991495 -0.000678192073043 0.000893617455604)
(0.0118423428016 -0.00463388077054 0.00183439025276)
(-0.00204593794193 0.000891025340986 -0.000746281969382)
(0.0104631193656 0.00128565396078 0.000704016083456)
(0.0184868340513 0.000614607402518 0.000832582342568)
(0.0210319488575 0.000213275210391 0.000528164352756)
(0.0212538682539 -0.000102130341645 0.000266480672166)
(0.0297231774962 -0.00138091811428 7.57598428786e-05)
(0.0540897171055 0.0142640184279 -0.0138323119014)
(0.0483828700519 0.00824597886101 -0.00835913849965)
(0.0390104726326 0.00302068215754 -0.00258677208564)
(0.0342679679716 0.0022345180513 -0.000114507515281)
(0.0298810619788 0.00484580432507 0.00188318557855)
(0.0186239392059 0.0112228259407 0.00427149319917)
(0.00166426222165 -0.00440889812619 -0.00195509708298)
(0.018884608324 -0.0062091871317 0.00134717467808)
(0.028446715079 -0.00228914920852 0.00147162452447)
(0.0320264453984 -0.000487561346641 0.000905528032636)
(0.0332517699185 5.6352857771e-05 0.00040426632834)
(0.0340828595565 0.000154528536186 -0.000103394990488)
(0.052825807007 0.00454969577426 -0.0137987919569)
(0.0567372596522 0.00612981844315 -0.0100887503353)
(0.0551473978831 0.00357970960438 -0.00405518260426)
(0.0549034159713 0.00357924784699 -0.00105316944568)
(0.0586195457299 0.00932689623509 0.00170253040407)
(0.068996425671 0.0320345414616 0.00967772203634)
(0.0381576376993 0.0469797645901 0.0101138372196)
(0.0574436451614 -0.044347206793 -0.0140444062439)
(0.0577331618153 -0.0188080192245 -0.00210940746577)
(0.0524483040641 -0.00513910859743 -0.000410142851945)
(0.0513015170838 -0.000958804245613 2.99418321856e-05)
(0.0522057374115 -0.000140995961507 0.000197496782935)
(0.0536054271688 -7.64802513522e-05 0.000355871870246)
(0.0525306033702 -0.00140679354574 -0.0137857992017)
(0.0567634024337 -0.00226012688236 -0.0099381642238)
(0.0571171215212 -0.00145607580253 -0.00391245240375)
(0.0587844280941 -0.0015230524569 -0.00072659190929)
(0.067539201097 -0.00430189436492 0.00318562226599)
(0.101616503653 -0.016399866252 0.00982281495062)
(0.222287654064 -0.100852031627 0.0207942327852)
(0.527072108461 -0.0245123057238 -0.000541053442942)
(0.492854769253 0.0189608931098 -0.0173723922507)
(0.148466403198 0.0487791603362 -0.0232701102252)
(0.0801354919119 0.0117585838981 -0.00790852171233)
(0.0587674338467 0.00282925313122 -0.00226908879692)
(0.0545026059908 0.00058045521103 -0.000575495477708)
(0.0551015785298 0.000148431819742 -9.14297820285e-06)
(0.056756712009 8.7053649047e-06 7.0120839769e-05)
(0.0533684715774 -0.00838252457993 -0.0138043129908)
(0.0552902981504 -0.00865984807188 -0.00927202162113)
(0.0500271363627 -0.00433769691955 -0.00322021058667)
(0.046946964743 -0.00384976625288 -0.000318669792977)
(0.0452303366466 -0.00882293356005 0.00228973143727)
(0.0404168950179 -0.0236430299373 0.00684180513197)
(0.0126318303746 -0.0197888387245 0.00512667973147)
(0.0156007614559 0.0163886586482 -0.00536764306256)
(0.0354855803283 0.0132438663697 0.000422238679731)
(0.0417191941226 0.00428940955396 0.0010733583787)
(0.0439799552913 0.000827331771219 0.000838033721448)
(0.0452110783022 5.44166140581e-05 0.000468302296992)
(0.0462529051378 0.000161923428698 -1.79836124943e-05)
(0.0502633871516 -0.012843814879 -0.00625877882531)
(0.0271085398989 -0.00207269106795 -0.00508714568996)
(0.0182395997745 -0.000539619075769 -0.00115425316127)
(0.0150170445506 -0.000318261634136 -3.44791697334e-07)
(0.012192068586 -0.000687279474621 0.000854649042504)
(0.00964359463259 -0.00447451732864 0.00227306763232)
(-0.00177671620246 0.000888242461177 -0.00081625931909)
(0.00637935792887 0.000654615706527 0.0012648571593)
(0.0119824648414 0.000235377673198 0.00100057833401)
(0.0140016249304 4.26175556647e-05 0.000519246685599)
(0.0144749643416 -6.57312339544e-05 0.000259609746304)
(0.0145908193383 -0.000415804422493 0.000250296486229)
(0.0502633924366 0.0128438251399 -0.00625878346182)
(0.03845825716 0.00467266971774 -0.00834335878739)
(0.0390038892139 0.00875420757066 -0.00628739336805)
(0.0171830059563 0.00295703381177 -0.000822517558067)
(0.0271085840435 0.00207270309229 -0.00508715350904)
(0.0214773235672 0.00103046532926 -0.00243909824408)
(0.0129095220189 0.00179466960198 -0.000416420833709)
(0.00771047434432 0.000244277470005 -9.29436796124e-05)
(0.018239650105 0.000539638653116 -0.00115427192682)
(0.0163163085235 0.000340889506442 -0.000444863176623)
(0.00690796900988 0.000334548810941 -4.9701535726e-05)
(0.00569409332616 9.5423236098e-05 3.41723002471e-05)
(0.0150171001186 0.00031825919883 -3.5424444719e-07)
(0.0138058377884 0.000420402410434 0.000407372352671)
(0.00544439871073 0.000274796166972 3.62061243087e-05)
(0.00487151568777 0.000300590294966 0.000143173023772)
(0.0121921183209 0.000687283483277 0.000854647503247)
(0.0096588683032 0.00111907817428 0.00141189594726)
(0.00463402385835 0.000586437391825 0.000160860131372)
(0.00340914974454 0.00104058487092 0.000367680875004)
(0.009643680782 0.00447446123389 0.00227309929381)
(0.00252447538173 0.00148674745554 0.000406267267079)
(-0.00181779730891 0.00117560991893 -0.00117876592044)
(-0.00101798602092 0.000496803881764 -0.000135794649542)
(-0.00177679677341 -0.000888326684283 -0.000816260957168)
(0.00187337712177 -0.000695965306793 0.00103476216355)
(-0.00124106576587 -0.000148721722294 -6.04760937123e-05)
(0.000666057234831 -0.000357878672063 5.0200658571e-05)
(0.00637922963733 -0.000654605198873 0.00126491266875)
(0.00973916291832 -0.00045997129883 0.00125086135389)
(0.00155513328494 -0.000275101545964 5.75620644883e-05)
(0.00341381446638 -0.000153773862617 0.00010848800579)
(0.0119823858443 -0.000235352767662 0.00100057622693)
(0.0132904966417 -0.00011917035145 0.000756289896191)
(0.00386585402998 3.03636091999e-05 6.82160983895e-05)
(0.00459907238297 -3.84325575999e-05 8.17683533569e-05)
(0.0140015667523 -4.25885138375e-05 0.000519168043333)
(0.0143430506801 5.22696302816e-06 0.000356816421627)
(0.00475625891513 0.00011627630419 3.93757040261e-05)
(0.00497125334066 -2.27301566708e-05 4.80963038199e-05)
(0.0144749669377 6.57469806137e-05 0.000259552028318)
(0.0144874657111 0.000184333306354 0.000285732626159)
(0.00501616222661 0.000116466765218 1.05861777712e-05)
(0.00510529482241 -4.20921964324e-05 2.50137369782e-06)
(0.0145908262891 0.000415812479427 0.000250286034715)
(0.0216289804193 8.84670550741e-05 1.20338630469e-05)
(0.00517143555856 3.55522749175e-05 -6.86981811594e-05)
(0.00537491573773 -7.92656358093e-05 -0.000105202768459)
(0.00193774227317 0.0026566965415 0.0014921877056)
(0.0404169688652 0.0236429267886 0.00684183099409)
(0.0301285542567 0.031451552525 0.00848387634196)
(0.00868068458503 0.00654528321125 0.000976600688231)
(0.000791977070254 0.00101388155673 6.67001317536e-05)
(0.0198320305374 0.0142750098301 0.00161687486164)
(0.0102236203696 0.0123317432184 0.00221782151158)
(0.0126318330018 0.0197888146186 0.00512665579749)
(0.00421722715639 0.00828234243205 0.000183757394524)
(-0.00157853925174 0.00253530104441 -0.00247812323409)
(-0.00100695115022 0.000379378907629 -0.00682199457974)
(-0.00109342330304 0.000739396621548 -0.000286333900628)
(-0.00129405068188 -0.00233983070596 -0.000253677500673)
(0.222287678594 0.100851963264 0.0207942295213)
(0.517649708624 0.0696379483898 0.00564875439468)
(0.0150324340846 0.0218138533081 0.000724682802785)
(0.163914124056 0.0700911509845 0.00559649800211)
(0.303383772649 0.029027954465 -0.00039885279104)
(0.527072149394 0.024512266171 -0.000541107201957)
(0.534413107241 -4.3719404985e-05 -0.0119655696944)
(0.306491829757 0.00727745169084 -0.000663706488149)
(0.293399484378 -0.00122503344822 -0.00317635023991)
(0.019380215155 -0.026851609238 -0.0174653916943)
(0.492854762633 -0.0189609361868 -0.0173724116616)
(0.22606944803 -0.0896011128016 -0.0355258440196)
(0.000550977177092 -0.00994056459021 -0.00148379042685)
(0.271464968825 -0.0126493964823 -0.0094138740342)
(0.118729277315 -0.0572260910416 -0.00809480010415)
(0.517649773957 -0.0696379386382 0.00564879522606)
(0.0381576392942 -0.0469798222368 0.0101138512921)
(0.163914112176 -0.0700911821596 0.0055965085274)
(0.303383792589 -0.0290279467444 -0.000398854258217)
(0.015032433703 -0.0218139019567 0.000724691177235)
(0.534413061182 4.36946959983e-05 -0.0119655406712)
(0.306491800717 -0.0072774653097 -0.000663722303519)
(0.293399504651 0.00122502438619 -0.00317634390496)
(0.226069428663 0.0896010047825 -0.0355258540706)
(0.0193802532976 0.0268514111589 -0.0174654966847)
(0.27146501084 0.0126494082583 -0.00941384271483)
(0.118729147981 0.0572260472323 -0.00809480953184)
(0.000551014623898 0.009940426773 -0.00148385038902)
(0.0301285817604 -0.0314516301077 0.00848388494631)
(0.0186238756592 -0.0112229196616 0.00427146339476)
(0.00193773815282 -0.00265671104559 0.00149216079412)
(0.0198320179872 -0.0142750617448 0.00161686066935)
(0.010223605178 -0.0123317841592 0.0022178268733)
(0.00868065380116 -0.00654529619109 0.000976593425286)
(0.000791965250846 -0.00101388390489 6.67046618879e-05)
(0.00421722219852 -0.00828235623825 0.00018374916971)
(-0.0010069145748 -0.000379600587513 -0.00682211616737)
(-0.0015784961033 -0.00253547882316 -0.00247830374202)
(-0.00129406090395 0.00233967011987 -0.000253659444752)
(-0.00109325199676 -0.000739511384865 -0.000286374368853)
(0.038458232824 -0.00467264819737 -0.00834336061304)
(0.0390038870351 -0.00875420592215 -0.00628739261632)
(0.0171829908728 -0.00295701281824 -0.000822521027527)
(0.0214772828952 -0.00103043342908 -0.0024390860998)
(0.0129094964778 -0.00179464875341 -0.000416422784204)
(0.00771045374624 -0.000244247596344 -9.29494648846e-05)
(0.0163162649413 -0.000340885436582 -0.000444856464046)
(0.00690795092197 -0.000334521455208 -4.97021722551e-05)
(0.00569406346727 -9.54241457188e-05 3.4178414309e-05)
(0.0138057893384 -0.000420414907407 0.000407379509228)
(0.00544436385504 -0.000274810538131 3.62098425528e-05)
(0.00487148283792 -0.000300594852455 0.000143171921425)
(0.00965883689154 -0.00111910814234 0.00141188616146)
(0.00463399706275 -0.000586450773399 0.000160861384309)
(0.00340912114178 -0.00104061302037 0.000367678174192)
(0.00252444885581 -0.00148679792922 0.000406252297585)
(-0.00181773687241 -0.00117575183392 -0.00117875631928)
(-0.00101798017089 -0.000496823686819 -0.000135751537638)
(0.00187357143213 0.000695952137846 0.00103474819001)
(-0.0012409465865 0.000148540798393 -6.05460129986e-05)
(0.000666156590959 0.000357915348587 5.01957937681e-05)
(0.00973925468829 0.000460015485253 0.00125079452261)
(0.00155516984333 0.000275128142354 5.76027777219e-05)
(0.00341390935804 0.0001537823269 0.000108500680201)
(0.0132905817565 0.000119197321039 0.000756277348973)
(0.00386593306687 -3.03456828089e-05 6.82268324786e-05)
(0.00459912417223 3.83923005519e-05 8.17789978646e-05)
(0.0143430597613 -5.22894527326e-06 0.00035694332745)
(0.00475632967725 -0.000116319151287 3.93702565868e-05)
(0.00497122690904 2.2738779594e-05 4.80894044902e-05)
(0.0144874639358 -0.000184354411183 0.000285712842388)
(0.00501618187398 -0.00011644639667 1.05886357541e-05)
(0.00510527446752 4.2090462232e-05 2.52385455593e-06)
(0.021628901111 -8.84333770362e-05 1.20290689022e-05)
(0.00517140390863 -3.56029634359e-05 -6.86783850704e-05)
(0.00537488691119 7.92711823942e-05 -0.000105196575492)
(0.0390213695707 0.00890969484235 0.00627099034543)
(0.0173868128548 0.00319126328411 0.000872362936475)
(0.0502323968583 0.0133351551809 0.00645346833749)
(0.0412782306136 0.00701941754806 0.00834816062751)
(0.0130306981958 0.00188585569517 0.000472761156283)
(0.00769129164355 0.00019127245509 0.000155998665159)
(0.0361678033071 0.00470872045874 0.00693684596475)
(0.026761459259 0.00124135194026 0.00254348901454)
(0.00688839449118 0.000277713936075 8.34537413676e-05)
(0.00570559104041 4.12907814564e-05 -7.96550983017e-06)
(0.0250971506537 0.00105969437637 0.00192837383949)
(0.0220275119022 0.00049954217711 0.000305717909233)
(0.00547244912203 0.000220776410925 -3.1373240847e-05)
(0.00492341953204 0.000221385915677 -0.000132753936466)
(0.0212931987098 0.00072257747369 0.000153972988604)
(0.0191423031475 0.000977677791935 -0.000879416455279)
(0.00468551899151 0.000497048529291 -0.000163372591476)
(0.00340554246364 0.000929278915316 -0.000403226067186)
(0.0181071819852 0.00154083762066 -0.00107179175436)
(0.0130095999912 0.00285829087836 -0.00205513510433)
(0.00252530524611 0.00138628451697 -0.000439499603585)
(0.00981392934421 0.00394296429975 -0.002234029605)
(-0.00085839883701 0.000435225098991 0.000109950838521)
(-0.00164358950547 0.000929287243512 0.00140305462779)
(-0.00103610107115 -0.000133275208917 7.43386626814e-05)
(0.000720541378702 -0.000338723197472 -3.35513633338e-05)
(-0.00140730075511 -0.000864687204486 0.000930953841119)
(0.00559981345189 -0.00223129619854 -0.00115093300585)
(0.00159606952332 -0.00025460605121 -4.83103647476e-05)
(0.0034773737257 -0.000141067502509 -0.000112480768007)
(0.00882419173764 -0.00192875110432 -0.00132674002968)
(0.0152513285277 -0.00114902899832 -0.00149501147144)
(0.00392885986312 4.18793114825e-05 -8.80554706385e-05)
(0.00466196499584 -3.9637388077e-05 -8.02495857975e-05)
(0.0167624477936 -0.000604218760184 -0.0011814603543)
(0.019158969891 -0.000316284723121 -0.00098979933046)
(0.00481659258774 0.000116829966845 -5.97887015952e-05)
(0.00503590947147 -3.25758142352e-05 -4.03221669184e-05)
(0.0196356650449 -8.52967487629e-06 -0.000649011187821)
(0.0202885157852 -6.88803073341e-05 -0.00057542066446)
(0.00508571939429 0.000105196017957 -2.39653674701e-05)
(0.0051754701984 -7.49412636339e-05 2.99208224675e-05)
(0.0204220451159 0.000150838680425 -0.000335292586385)
(0.0208978709416 0.000140082385118 -0.000205855722111)
(0.00520447955606 -1.2580612776e-05 8.35743760417e-05)
(0.00535909599678 -0.000135009720254 9.77761243305e-05)
(0.021318096675 0.000418257634752 0.000101800670885)
(0.0217610363894 -0.000144261647381 -4.77682845903e-05)
(0.000789095795755 0.00101031856123 -6.79712540831e-05)
(0.019790666486 0.0142403266333 -0.00162300555741)
(0.0102150506989 0.0123204774157 -0.00221797964955)
(0.018588918284 0.0111463209061 -0.00430484613071)
(0.00193470646466 0.00264744148686 -0.00149945915053)
(0.040340516028 0.0235822014495 -0.00689607693895)
(0.0300983096005 0.0314070750065 -0.00852842146739)
(0.00421518831144 0.00827742939949 -0.0001840793005)
(0.0126227800496 0.0197699182212 -0.00514375470374)
(-0.000901584004151 0.00064062587961 0.000229094630835)
(-0.000857116441137 -0.00239088679319 0.00045496124984)
(-0.00110220889964 0.00106986842266 0.00271017194154)
(0.00703783692422 -0.0109818997122 0.0106685030685)
(0.163913355127 0.0700877856622 -0.00560074124049)
(0.3034063853 0.0290306895602 0.000398729810298)
(0.0381407062125 0.0469514981334 -0.0101426814882)
(0.222277492023 0.100841991495 -0.0208374035525)
(0.517685011567 0.0696425216939 -0.00567879098134)
(0.306514860828 0.00727827942085 0.000665637882623)
(0.293356591611 -0.0012276211128 0.00320743813146)
(0.527121452073 0.0245154724888 0.000516736758598)
(0.534565345067 -3.35930515671e-05 0.0119080115872)
(0.000983876159775 -0.0100239646716 0.00164365026804)
(0.271369193907 -0.012644137817 0.00947329278658)
(0.118799134217 -0.0564723294321 0.00832164438497)
(0.0221009010632 -0.0228653780788 0.0203141993014)
(0.493216201056 -0.0189925631718 0.0172604971159)
(0.227579735413 -0.0888619382347 0.0365113315603)
(0.303406392665 -0.0290306943787 0.000398722404492)
(0.0150277064048 -0.0218061391643 -0.000726207212125)
(0.22227750619 -0.10084200861 -0.020837425025)
(0.517684997447 -0.069642554877 -0.00567879114051)
(0.0381407150514 -0.0469515728155 -0.0101427242235)
(0.293356571249 0.00122758757737 0.00320745737844)
(0.52712142345 -0.024515481959 0.000516716692371)
(0.534565347164 3.35770145095e-05 0.0119080026106)
(0.118799107512 0.0564723073026 0.00832165645256)
(0.000983888895197 0.0100238960804 0.00164366968271)
(0.493216166297 0.0189924865555 0.0172604715508)