/*--------------------------------*- C++ -*----------------------------------*\
  =========                 |
  \\      /  F ield         | OpenFOAM: The Open Source CFD Toolbox
   \\    /   O peration     | Website:  https://openfoam.org
    \\  /    A nd           | Version:  7
     \\/     M anipulation  |
\*---------------------------------------------------------------------------*/
FoamFile
{
    version     2.0;
    format      ascii;
    class       volScalarField;
    location    "9";
    object      p;
}
// * * * * * * * * * * * * * * * * * * * * * * * * * * * * * * * * * * * * * //

dimensions      [0 2 -2 0 0 0 0];

internalField   nonuniform List<scalar> 
5218
(
1.61828369081
1.59116150879
1.58634517028
1.58329478568
1.58071136683
1.57866988603
0.0109353279268
0.012454089262
0.0114826929595
0.00903549926461
0.00598141531473
0.00285450290541
1.61227652633
1.59009718679
1.58596149128
1.58283266122
1.57943282743
1.57443650735
1.56895628652
0.0113424658821
0.0124550719745
0.0113799764315
0.00901626313088
0.00596614414241
0.00281367111113
1.61141164938
1.58987888332
1.58589607522
1.58268425723
1.57869706762
1.56968379364
1.53032799858
0.982375923587
0.204329133178
0.0179861711941
0.0126754697308
0.0111613473329
0.00891805096983
0.00592465202565
0.00276031200693
1.61299511622
1.59059424797
1.5861689487
1.58312200707
1.58025539646
1.57717146804
1.57287272229
0.0105132618021
0.0124337945032
0.0114911970235
0.00905699016893
0.00597675394908
0.00283260910258
1.62384791192
1.59219605777
1.58662303122
1.58352839532
1.58080391258
1.57872534289
0.0111678302955
0.0126840234256
0.0117854148772
0.00938713956739
0.00639154861063
0.003164168862
1.59525541253
1.58989159928
1.58625959454
1.58343632869
1.58107277421
1.57945275741
0.0105676611445
0.013054665786
0.011925125255
0.00928872025419
0.00605450056757
0.00253111885845
1.5916852298
1.58805078632
1.58516448527
1.58215772828
1.57884455095
1.57710325413
1.57247795466
0.0139281481213
0.0129581231399
0.0109833595119
0.00861930067584
0.00567636005693
0.00327294766254
1.59115728862
1.58805069437
1.58516444441
1.58215773524
1.5788446045
1.57235035777
1.53624859758
0.965684855729
0.149220370475
0.0139281804535
0.0129581120858
0.0109833087187
0.00861923270106
0.0056762846659
0.00309841307824
1.59306091287
1.58962244829
1.58620655096
1.58329746068
1.58063910626
1.57831353159
1.57808749995
0.0102593521001
0.0131388068134
0.0119496024289
0.00945705175046
0.00621321053768
0.00259375257895
1.60213143333
1.58967842178
1.58614916894
1.5833211496
1.58085679803
1.57894550956
0.0111760046396
0.0135141961009
0.0120068152792
0.0091953148327
0.00605826027607
0.00269663230498
1.59340540934
1.58930457611
1.58618075285
1.58355439809
1.58139067673
1.5801352363
0.0103775747219
0.0134320707944
0.0122826273771
0.00952390310697
0.00613950042522
0.00246632372851
1.59001177526
1.58791738753
1.58520226509
1.58232321259
1.57920041422
1.57794128514
1.57503759754
0.0135526196793
0.0128622762761
0.0109246607688
0.00865707456067
0.00574023289032
0.0030352212611
1.58953778162
1.58791731209
1.58520222901
1.5823232196
1.57920046356
1.57301074993
1.53833139611
0.959412496307
0.138275134001
0.0135526779985
0.0128622877809
0.0109246113101
0.00865699248577
0.00574014334479
0.00269824296292
1.59130035131
1.58915110702
1.58622641342
1.5834795475
1.58103188763
1.57914374483
1.58029692556
0.00993909903604
0.0133277180806
0.0121318105015
0.0096694220323
0.0063486190829
0.00251858588264
1.59970724188
1.5890726145
1.58604436901
1.58341673851
1.58113854301
1.57931637018
0.0111330140786
0.013986970496
0.012402649869
0.00939191958793
0.00611932171459
0.00235933745512
1.59393636217
1.5895114488
1.58621908552
1.58351045419
1.58126126817
1.57987575609
0.0104521472909
0.0133577292506
0.0121768005419
0.00944400971969
0.00610812979658
0.0024751633905
1.59052609949
1.58805008563
1.58516951926
1.58216201601
1.57884739351
1.57746077695
1.57462244532
0.013887459464
0.0129653434557
0.0109919097835
0.00863046865463
0.00568746529136
0.00279305177275
1.59004544598
1.58805001161
1.5851694887
1.58216203422
1.57884745054
1.5725404477
1.53767054038
0.96019894919
0.139219832593
0.0138875560373
0.0129653792456
0.0109918805376
0.00863039106407
0.00568736169661
0.00245475539414
1.59181691655
1.58930429221
1.58623892908
1.5834207327
1.58088831741
1.57881789758
1.57996498003
0.0100090191816
0.0132741076713
0.0120579594894
0.00959121634859
0.00630259920801
0.00250147173584
1.59995429225
1.58933812472
1.58610032417
1.58338209022
1.58103222286
1.5791969012
0.0111705736144
0.0138464539731
0.0122628332393
0.00931599206335
0.00609548821399
0.00234697887189
1.59747369713
1.59039746269
1.58631913268
1.58334913277
1.580832751
1.57897601426
0.0108605522439
0.012756234172
0.0116457899528
0.00910798289389
0.00599276324331
0.00265201001616
1.5938651581
1.58962715123
1.58606582726
1.5829489802
1.57969729255
1.57548612282
1.57084664696
0.0119831130211
0.0128953217823
0.0114947288594
0.00918001809913
0.00610821133113
0.00261402971204
1.59331990046
1.58944949474
1.58602511592
1.58281120775
1.57903357674
1.57099115281
1.53405604024
0.968751536403
0.157677946819
0.0186928492235
0.0133064160988
0.0112800208217
0.00908677303461
0.00608955355287
0.00254579809367
1.59520317693
1.5899696201
1.58620569497
1.58321360817
1.58043999407
1.5776422653
1.57689370613
0.010475300972
0.012828257114
0.0116927340214
0.00921528680593
0.00604762653659
0.00258056478858
1.60344450246
1.59101058258
1.586338285
1.58329777206
1.58072839669
1.57869417249
0.0111970277701
0.0130462394217
0.0116662805796
0.00904135138709
0.00599920282263
0.00290328522231
1.60344506452
1.59465428429
1.62366943583
1.59465820099
1.59101100927
1.5883243427
1.59238393583
1.58764176201
1.58633849808
1.5847362918
1.58671388063
1.58428487235
1.58329771106
1.58196385685
1.58355849723
1.58153982317
1.58072807172
1.57971423847
1.58083375514
1.57919848568
1.57869363821
1.57870594158
0.00996940761396
0.0102739592306
0.0111958197702
0.0128881892719
0.0110922291445
0.0126351129055
0.013045727126
0.0126163400232
0.0127336599882
0.0122731303691
0.0116662264044
0.0104464952597
0.0117875443717
0.0100884705367
0.00904164343323
0.00754884097166
0.00938255279755
0.00719521215641
0.0059995936146
0.0044349812657
0.0064125673925
0.00404341917763
0.0029036053966
0.000412464536785
0.00322677786092
0.00046664086454
1.57921282412
1.57764188916
1.57668497284
1.57868131851
1.5783523415
1.57717716674
1.57297621567
1.57689328615
1.57287755876
0.00882237426034
0.00638901887502
0.00970411401699
0.00743300920138
1.53405596744
1.17697516757
1.56895898618
1.53032841831
1.19060315856
0.968751494129
0.373655123588
0.982412819551
0.396477154966
0.00488248585538
0.157677933063
0.0130711024597
0.00549133345433
0.204241281565
0.0179249590596
1.1769751593
1.57084694079
1.53032846187
1.1906031527
1.56895927403
0.373655219444
0.982412857476
0.396477170389
0.0130711821957
0.00488286049552
0.204241273571
0.017925045099
0.0054919314183
1.57668532607
1.57897651174
1.57921345625
1.57717756738
1.57297661224
1.57868182241
1.5783529736
1.57287794463
0.00638980428454
0.00882337739871
0.00743389778341
0.00970557965123
1.59465377238
1.62366885544
1.59465770984
1.58832399704
1.59238348716
1.58764145652
1.58473620807
1.5867136263
1.58428477088
1.58196405314
1.58355846918
1.58154005901
1.57971472823
1.58083405527
1.57919900793
1.57870650482
0.00997069011139
0.0102756737433
0.0128889973465
0.0110936960566
0.0126360036857
0.0126165803505
0.0127343458249
0.0122734208014
0.0104463256002
0.0117876478124
0.0100882375322
0.00754847952984
0.0093822010217
0.00719470911439
0.00443468362565
0.00641202592749
0.00404297621876
0.000412394770376
0.00322635948335
0.000466571594584
1.62384895941
1.59451295509
1.60358626282
1.59334708367
1.59219689443
1.58753060739
1.5916085389
1.5875737695
1.58662341666
1.58424811422
1.5867231378
1.58434697267
1.58352839943
1.58150747297
1.58363055275
1.58163840652
1.58080369046
1.57923281005
1.58094325813
1.57952851089
1.57872483586
1.57910051426
0.0104715971119
0.0101457160435
0.0111675582502
0.0125735774898
0.0111797514937
0.0128442649987
0.0126838704016
0.012254342539
0.0129146728494
0.0124875557276
0.0117857079891
0.0100851317689
0.0119246717836
0.0101870130581
0.00938791304178
0.00717605430978
0.00942155862226
0.0072008252349
0.00639220908425
0.00397178991244
0.00637845234024
0.00391983623714
0.00316449557724
0.000469256330808
0.00298031054662
0.000446854027078
1.578344667
1.57717113485
1.5729736312
1.57898130694
1.57921066774
1.57762727805
1.57667739374
1.57287245933
1.57688293177
0.00992859164199
0.0073293401695
0.00932631731126
0.00692904012126
1.53032795947
1.19057753846
1.57084279133
1.53405348452
1.17694257352
0.98237590759
0.396469252481
0.968699157563
0.37346458623
0.00547863092
0.204329136522
0.0181917309089
0.00462692260421
0.157359384845
0.0119864383246
1.19057755645
1.56895652622
1.53405353408
1.17694265389
1.5708430706
0.39646932019
0.968699206338
0.373464626444
0.0181917814515
0.00547885096221
0.157359500153
0.0119864705362
0.00462707258892
1.57297395506
1.57867035344
1.57834524858
1.57762759373
1.57667772247
1.57898177515
1.57921126917
1.5768832864
0.00732958776411
0.00992882783751
0.00692924751509
0.00932646984389
1.59451203596
1.60358531859
1.59334625115
1.58753009794
1.59160782032
1.5875733098
1.58424800695
1.58672279455
1.58434691039
1.58150769465
1.58363055891
1.58163864423
1.57923329879
1.58094355328
1.57952899388
1.57910106448
0.0104717581189
0.0101458763958
0.0125738269421
0.011179949928
0.0128444150618
0.0122541555597
0.0129147240926
0.0124874495132
0.0100844399026
0.011924456827
0.0101865507536
0.00717537341766
0.00942102234001
0.00720027141814
0.00397138949822
0.00637793310435
0.00391945914064
0.000469173438278
0.00298004473549
0.000446806496333
1.60213237081
1.59301421788
1.59996853911
1.59199925541
0.00269699165823
0.000449066864681
0.00234389119907
0.000424414236153
1.59301344451
1.59996775717
1.5919985842
0.000448997901709
0.00234369316752
0.000424382132638
1.59970797925
1.59183539028
1.59970007519
1.5918361007
0.00235959208239
0.000422774194603
0.00235953632284
0.000422667672353
1.59183475524
1.59969942758
1.59183556414
0.000422733258093
0.00235930317626
0.000422656701717
1.59995490592
1.59200521701
1.60203185812
1.59303901579
0.00234726712598
0.000423817954021
0.00269399729212
0.000450317107688
1.59200470502
1.60203130099
1.59303852683
0.000423796937993
0.00269369651081
0.00045023657202
1.59316262608
1.59520352556
1.59215984945
1.61815457524
1.59459356746
1.61295286303
1.59342926661
1.58815374644
1.58996987367
1.58793260256
1.59113973508
1.5883635636
1.59058355857
1.5880834167
1.58476335042
1.5862057965
1.58464722454
1.58634920063
1.58473497669
1.58617906103
1.5845970287
1.58204058593
1.58321355691
1.58181071156
1.58329595782
1.58196508736
1.58312931987
1.58171078767
1.57981630359
1.58043976607
1.57910384362
1.58071370304
1.57960313646
1.58026393378
1.57879715163
0.0123870109515
0.0104746276316
0.0125536188205
0.0108851166614
0.0121023064908
0.0105565874244
0.0120477908173
0.0124815610706
0.0128278985001
0.012521989303
0.0124969091836
0.0122701495773
0.0124793622823
0.0122719103458
0.0104951560196
0.0116926721042
0.0105845655342
0.0114981139798
0.010392532181
0.0115121794239
0.0104282448437
0.00759156202135
0.00921546185077
0.00767735265381
0.00904470606352
0.00756571261927
0.00907805592621
0.00758513681004
0.00434638549317
0.00604789281002
0.00432325965133
0.00600645644083
0.00441704748704
0.00600504264709
0.00439252793956
0.000834115729113
0.00258075041013
0.000813479320607
0.00289484339426
0.000540398539722
0.00285882450955
0.000508793490832
1.59139050957
1.59331996953
1.59104755275
1.61224348409
1.59256787292
1.61139080191
1.59218395494
1.57184674776
1.57099107166
1.56144910789
1.57443759861
1.56977228707
1.56968408152
1.55862860708
0.000793158238017
0.00254583323132
0.000763041195675
0.0028318721272
0.000522567621003
0.00277524911388
0.000496593821631
1.59104748974
1.59386494327
1.5913903329
1.61139075473
1.59218389457
1.61224317818
1.59256768853
1.56144917197
1.57548634055
1.57184699024
1.5696841543
1.55862869154
1.57443783068
1.56977254416
0.000763027729431
0.00261390286456
0.000793099417046
0.00277519247679
0.000496559673131
0.00283174577722
0.000522578320599
1.59215952668
1.59747322775
1.59316219151
1.61295249949
1.59342895284
1.61815403329
1.59459313965
1.58793240971
1.59039709187
1.58815347939
1.59058329528
1.58808322726
1.59113938297
1.58836330947
1.58464717363
1.5863189562
1.58476328777
1.58617894295
1.58459698144
1.58634902947
1.58473488645
1.58181084618
1.58334918303
1.58204077094
1.58312934616
1.58171092317
1.58329601527
1.58196527544
1.57910416086
1.5808330567
1.57981670885
1.58026417375
1.57879748871
1.580714009
1.57960355076
0.0125541633154
0.010861500805
0.0123877469861
0.0105574404582
0.0120484785628
0.010886235172
0.0121031732377
0.0125221806148
0.0127567354619
0.0124818622296
0.0124798133699
0.0122721752049
0.0124975375204
0.0122705077543
0.0105844383324
0.0116458417129
0.0104950614127
0.0115122430818
0.0104281805223
0.0114982837466
0.0103924296891
0.00767707475846
0.00910770133786
0.00759122902425
0.00907781866493
0.00758485984991
0.00904447300558
0.00756536078364
0.00432297444636
0.00599239017584
0.00434605736855
0.00600468732315
0.00439227515794
0.00600605831439
0.00441668391884
0.000813414134328
0.00265177373429
0.000834032660903
0.00285864849238
0.000508801258504
0.00289457874762
0.00054033057376
1.60685133095
1.61169577381
1.63515898296
1.60680747795
1.62371113126
1.60318436568
1.61128252648
1.59919472245
1.59479495549
1.59593470358
1.59916737458
1.59470026485
1.59845845542
1.60105889524
1.59020292144
1.59274045083
1.5928378077
1.59021359569
1.59235891872
1.59057172306
1.59054690032
1.58889335325
1.58787629081
1.5877708839
1.58888163291
1.58764368171
1.58918510499
1.58901879711
1.58582650686
1.58689641914
1.58676766939
1.58581327336
1.58673195234
1.58595846165
1.58587733283
1.58507237609
1.5843890426
1.58432791517
1.58503811191
1.58431367352
1.58515665508
1.58507095535
1.58292542013
1.58365596644
1.58359346671
1.58287683252
1.58361595511
1.58297448865
1.58291787811
1.58226576466
1.58166179804
1.58159245946
1.58216933709
1.58162086846
1.58228135408
1.58222152789
1.58041564851
1.58099652144
1.58092673181
1.5802813087
1.5809954064
1.58046220587
1.58036509899
1.57987934247
1.57948881313
1.57934559368
1.57961224042
1.5794094866
1.57987255601
1.57977359207
1.57884105108
1.5790944263
1.5788963438
1.57873817199
1.57895497143
1.57916694189
1.57881196119
1.57900939713
1.57924928869
1.5793848101
1.57900425031
0.0102895591376
0.0102113312647
0.0105582490166
0.0100247180417
0.0105285676818
0.00998657814004
0.0103127202334
0.0117505947284
0.010995393051
0.0112168077109
0.0116322458555
0.011234354979
0.0114914581233
0.0117212577466
0.0123643379391
0.0124443252222
0.0125513770629
0.0122842090677
0.0126446507235
0.0121354529683
0.01226239758
0.0127337021718
0.0125593437191
0.0126499362975
0.012767951212
0.0127415483924
0.012603490286
0.0126505936743
0.0125212007013
0.0121705958001
0.0121640038833
0.0125341408395
0.0122334345247
0.0124069394649
0.0124371753414
0.0112737125746
0.0117039814297
0.0117048260159
0.0113130131689
0.0117572510253
0.0112567435633
0.0112358328289
0.010664682836
0.0100608313534
0.0100420428343
0.0106989632655
0.0100568299932
0.010646550548
0.0106376713384
0.00866779318677
0.00934755090522
0.00934750445718
0.00868861613811
0.00935341610384
0.00867574131435
0.00867154095656
0.00791891649941
0.00718963101751
0.00720002429141
0.00793668330638
0.00718666871974
0.00791142508612
0.00792426595444
0.00564445913425
0.00639225521219
0.00641712243358
0.00564329200053
0.00640705090389
0.00563985711979
0.00566294741737
0.00484917437687
0.00404160386723
0.00407671674025
0.0048462304367
0.0040510025895
0.0048270911866
0.0048610966229
0.00233892038446
0.00321229545433
0.00325436349474
0.00233404278668
0.0032240169004
0.00226965742821
0.00246808543001
0.00148635549704
0.000444776832344
0.000507218011853
0.00149443901348
0.000465748048747
0.0012691750554
0.00155462510969
1.57756958579
1.57832399248
1.5793263696
1.57796921188
1.57878144933
1.578404579
1.57838812692
1.57417753507
1.57378369295
1.57394605676
0.00851096958413
0.00965189702133
0.00936369540947
0.00903495262354
0.00925249633951
0.00919336823306
0.00854589023024
1.56616922147
1.56771910267
1.56365470243
1.55606425233
1.56614958983
1.55853543712
1.55600498167
1.50544132462
1.18461929475
1.40964973609
1.4002986579
1.51271688008
0.976990534438
0.785422020475
0.781933045647
0.389730447336
0.588356744356
0.583946558022
-0.0209673188542
-0.00642994807759
-0.00809451450892
-0.0147975669276
-0.0492275652672
0.186223253958
0.0504839494533
0.0484756195988
-0.0331847463452
1.50544141764
1.18461930604
1.40964982691
1.40029875359
1.51271687141
1.5661693776
1.56771941221
1.55606443946
1.5636549737
1.55853562312
1.56614990154
1.55600508533
0.976990496328
0.785422085761
0.781933019338
0.389730473986
0.5883567902
0.583946540739
-0.0492273373607
0.18622329583
0.0504839630877
0.0484756508542
-0.0331844909721
-0.0209669218801
-0.00642929419541
-0.00809379457438
-0.0147970212208
1.57757016433
1.57832464051
1.57796980035
1.57932697079
1.57840516473
1.57878206637
1.57838873783
1.57417790696
1.57378419521
1.57394654923
0.00851217295799
0.00965318362991
0.00903615988276
0.00936539065093
0.00919450057043
0.00925393383864
0.00854710789606
1.60685073915
1.61169519827
1.60680691356
1.63515837617
1.60318380866
1.62371053365
1.61128192247
1.59919416501
1.59479447219
1.59916686458
1.59593417359
1.59845795302
1.59469974847
1.60105832972
1.59020244345
1.59274001218
1.59021319482
1.59283731321
1.59057129883
1.59235840753
1.59054639978
1.5888929258
1.58787599686
1.58888128496
1.58777053728
1.58918473386
1.58764332654
1.58901833658
1.58582627494
1.58689616009
1.58581304389
1.58676733314
1.58595824867
1.58673167225
1.58587704081
1.58507222139
1.58438895618
1.58503794396
1.58432779784
1.5851565411
1.58431363496
1.58507077313
1.58292548375
1.58365596285
1.58287690575
1.5835934741
1.58297455581
1.58361596673
1.58291794776
1.58226592158
1.58166203788
1.5821695035
1.58159269502
1.58228153112
1.58162115962
1.58222167103
1.58041606477
1.58099683063
1.5802817083
1.58092708171
1.58046259893
1.5809957268
1.58036548093
1.57987984466
1.57948932639
1.57961269244
1.57934618317
1.57987305314
1.579410075
1.5797741095
1.57884176844
1.5790949881
1.57873882535
1.57889704285
1.5791675303
1.57895555055
1.5788128548
1.57901011261
1.57924993179
1.57938524632
1.57900522611
0.0102915043719
0.0102129613842
0.0100265268844
0.0105600903669
0.00998851742908
0.0105307059906
0.0103142196036
0.01175195923
0.0109967310688
0.0116335661333
0.011218607336
0.0114926663269
0.0112359106793
0.0117227666587
0.0123654177328
0.012445151599
0.0122853296173
0.012552300403
0.0121364244418
0.012645487761
0.0122636783347
0.0127342055132
0.0125600392216
0.012768529968
0.012650637527
0.0126040155013
0.0127422337658
0.0126511127995
0.0125215677276
0.0121708355803
0.0125345858504
0.0121642409113
0.0124073667774
0.012233716138
0.0124375361378
0.0112737051758
0.0117040817098
0.0113129930065
0.0117049401129
0.0112567601848
0.0117574053903
0.0112357984157
0.0106646163465
0.0100605456657
0.0106988037461
0.0100417819755
0.0106465793604
0.0100568162375
0.0106376572513
0.00866746451468
0.00934726977772
0.00868824200355
0.00934734906232
0.00867541027695
0.00935326455947
0.00867118860549
0.00791854149787
0.00718912354645
0.00793620838246
0.00719944913696
0.00791105789449
0.00718631951183
0.00792385412743
0.00564404165027
0.00639179561505
0.0056427514136
0.00641664228607
0.00563939340592
0.00640665160607
0.00566239913758
0.00484875802572
0.00404117765389
0.00484574134546
0.00407620887036
0.00482670407812
0.00405067134607
0.0048606757332
0.00233860192008
0.00321192682225
0.00233369704514
0.00325398569271
0.00226932409437
0.00322371593642
0.00246775012132
0.00148614854415
0.000444693089229
0.00149424801472
0.000507124897918
0.00126894363655
0.000465634986129
0.00155439055161
1.59469078769
1.61299573833
1.59347889016
1.59754203423
1.59336797347
1.59526352372
1.59222342088
1.58836222554
1.59059469324
1.58807712282
1.59044753855
1.58815201247
1.58999198129
1.58792972722
1.5847331973
1.58616914117
1.5845883827
1.58631066231
1.58475886207
1.58619487248
1.58463631997
1.58196311529
1.58312200504
1.58170294783
1.58334598289
1.58203621051
1.58320357414
1.58180003141
1.57960166271
1.58025521994
1.57878726045
1.580822735
1.57980071482
1.58042724814
1.57908742952
0.012062570655
0.0105130595428
0.0119776958557
0.010884795091
0.0123197735041
0.0103391701769
0.0123722987578
0.0122417667132
0.0124337367291
0.012243505314
0.0127008217432
0.0124569038083
0.0127391364069
0.0124828556114
0.0103840502574
0.0114913560017
0.0104094004291
0.0116410253762
0.0105012297727
0.0116726065736
0.0105713848006
0.00755070057693
0.00905726917018
0.00756099451998
0.00911314583241
0.00758941865387
0.00920171972846
0.00766021385242
0.00438107635564
0.005977013255
0.00436286747579
0.00597663537322
0.004315015719
0.0060254231566
0.00429806637628
0.00053591573593
0.00283275954083
0.000507475690951
0.00260349124823
0.00084369524808
0.00255847239501
0.00080348745637
1.59259662138
1.61141174067
1.59220563755
1.59389976606
1.59143095651
1.59334476379
1.59107578943
1.58779191025
1.58987896422
1.5877046299
1.5896464482
1.58766535751
1.58946380965
1.58759384371
1.58437749071
1.58589609791
1.58431099466
1.58605957146
1.58441040804
1.58602196057
1.58435083297
1.58122402553
1.58268425602
1.58090208011
1.58293980599
1.58129207719
1.58280494038
1.58097486875
1.57728207639
1.57869703382
1.57529498104
1.57968866718
1.57762331606
1.57902865683
1.57571902836
1.56977163652
1.56968372945
1.55862900597
1.57548154583
1.57184339742
1.57098827525
1.56144693977
1.56365269725
1.55606228484
1.55600329461
1.56616719098
1.56771790139
1.56614867778
1.55853431262
-0.00573964514984
-0.0135408520973
-0.0196174066478
-0.00776027331871
0.01220345995
0.0179861001512
0.0138924394995
0.0114616745817
0.0127349171247
0.019117532311
0.0150582324771
0.0121295231972
0.0126754559946
0.0119141059133
0.012781795335
0.012202246606
0.0133340298979
0.0120846234544
0.0103252433991
0.0111613820251
0.0101483366906
0.0114648812871
0.0103858859618
0.0112653161162
0.0102076957861
0.00753428926357
0.00891808977066
0.00747511793452
0.00915853915529
0.00765117581146
0.00906505942496
0.00760611885671
0.00435113011688
0.00592470487255
0.00430317072001
0.00608604067766
0.00433903609201
0.00606936071942
0.00431323720168
0.000521682019586
0.00276033005949
0.000495580716873
0.00259872814114
0.000789206692806
0.0025340880635
0.00076030328442
1.59220551508
1.61227605515
1.59259629152
1.59334464704
1.5910756903
1.5938994116
1.59143065368
1.58770455394
1.59009692434
1.58779173146
1.58946373745
1.58759379774
1.58964622426
1.58766519188
1.58431097471
1.58596135877
1.58437743403
1.58602192935
1.5843508072
1.58605946954
1.58441036555
1.58090209683
1.58283264761
1.58122407594
1.58280493293
1.58097486569
1.58293979012
1.58129214053
1.57529502025
1.57943294107
1.577282225
1.57902869576
1.57571906252
1.57968876906
1.57762347869
1.55862905866
1.57443669249
1.56977181989
1.57098833141
1.56144700717
1.57548174854
1.57184359787
0.785380091564
0.976946226682
0.7818765713
0.0506963221388
-0.032585733082
-0.0487913205382
0.186209850025
0.0485158457003
0.0138924523667
0.0113425849285
0.0122035732035
0.0191175587652
0.0150582749778
0.0114618154614
0.0127349973262
0.011914133025
0.0124551163573
0.0121294822914
0.0133340438384
0.0120846006492
0.0127818124253
0.0122022764474
0.0101482920657
0.0113798914121
0.0103251010739
0.011265300417
0.0102076481678
0.0114647907507
0.0103858322034
0.00747504297469
0.00901608828621
0.00753413607983
0.00906500831246
0.00760605174135
0.00915840524371
0.00765107747302
0.00430309051138
0.00596599927198
0.00435105211471
0.00606931158422
0.00431317730334
0.00608592935054
0.00433896001095
0.000495554611467
0.00281359067587
0.00052174313804
0.00253406126644
0.00076029740815
0.00259871472186
0.000789200561029
1.5934783457
1.61828278138
1.59469005392
1.59526295768
1.5922229118
1.59754127549
1.59336727029
1.58807678553
1.59116091083
1.58836178012
1.58999157033
1.5879294255
1.59044695068
1.58815158426
1.58458827987
1.58634488811
1.58473306048
1.58619468857
1.58463624391
1.58631040096
1.58475875623
1.58170304108
1.5832947923
1.58196324747
1.58320359147
1.58180012963
1.58334602368
1.58203637247
1.57878751862
1.58071164988
1.57960204532
1.58042743724
1.57908768944
1.58082302207
1.57980108645
1.57377895981
1.57417082946
1.57394169643
0.0119778280893
0.0109355511168
0.012062749151
0.0103393425158
0.012372436487
0.0108849923816
0.0123199409757
0.0122434645717
0.0124541915341
0.0122416622488
0.0127392000379
0.0124828258768
0.0127008916348
0.0124568646853
0.010409129061
0.0114825165425
0.0103836663902
0.0116725137683
0.0105712098729
0.011640862832
0.0105009345706
0.00756066856471
0.00903505712891
0.00755025572205
0.00920149806046
0.00765996483027
0.00911277271477
0.00758901134959
0.00436260797796
0.0059810184298
0.00438081497677
0.00602517188342
0.00429785420373
0.00597629263493
0.00431472278734
0.000507498391042
0.00285429219633
0.000535868683284
0.00255834958114
0.000803438755422
0.00260332038152
0.000843627000012
1.60696318289
1.63546210495
1.61189759666
1.61164706695
1.62404429202
1.60730514864
1.60335451506
1.5900574582
1.59270546818
1.59043525703
1.59026205888
1.59246800748
1.59034013467
1.59231826192
1.58575105061
1.58667687935
1.58580879661
1.58580846426
1.58675815037
1.58585807059
1.58666489606
1.58284690999
1.58353479363
1.58284961141
1.58286748615
1.5836131814
1.58293726469
1.58354832503
1.58025607723
1.58081033052
1.58023294967
1.58026446351
1.58096758694
1.58046140375
1.58083444936
1.57873987205
1.5788028748
1.57875774381
1.57879405688
1.57914965722
1.57917729251
1.57884256605
0.0116166741109
0.0113096200046
0.0117423851322
0.011761008
0.0110643574356
0.0114384786715
0.0113309025513
0.0127293691693
0.0126458880818
0.0126452572545
0.0126834918487
0.0125090339059
0.0125863770965
0.0126860655568
0.0113057833397
0.0117117367068
0.0112339159207
0.0112394494315
0.0117279756147
0.0112716321662
0.0117166974027
0.00868080203321
0.00935377206839
0.00866488727927
0.00866113137459
0.00938125069158
0.00868223006565
0.00934519454513
0.0056002514924
0.00639602269857
0.00561983612875
0.00561897462974
0.00639169815704
0.00559926222066
0.00639093664771
0.00232339473901
0.0031719512468
0.00234455272275
0.00223444960053
0.00312492633812
0.00222454907159
0.00314513679273
1.58967906558
1.58787672287
1.58929808063
1.58770943101
1.58614945519
1.58469206043
1.58608931653
1.58470586294
1.58332108913
1.58204752944
1.58337973655
1.58216140331
1.58085645872
1.57994560217
1.58102349374
1.5801972579
1.57894502998
1.57919331764
0.00985379516562
0.00955558967448
0.0111758122957
0.013353536003
0.0111611772549
0.0136471261988
0.0135142140548
0.0130728435312
0.0138358059856
0.0133957486489
0.0120070676774
0.0106966347874
0.012259892769
0.0108853450867
0.00919578646163
0.00764295223194
0.00931461491834
0.00771253818466
0.00605868397741
0.00458259603178
0.00608899022997
0.00458267396387
1.5923950586
1.59306143889
1.59129177334
1.59395955965
1.5916542697
1.59183159305
1.59062965003
1.58794678606
1.58962280797
1.58778489007
1.58951005683
1.58780670175
1.58930720365
1.58771420027
1.58478922858
1.58620671216
1.58468523077
1.58622234082
1.58483172977
1.5862373638
1.58477650908
1.5821935221
1.58329745713
1.58200858778
1.58351415574
1.58233407461
1.58341891262
1.58219680918
1.58023464913
1.58063896051
1.57977792711
1.58126244841
1.58055216219
1.58088590477
1.58022822035
1.5798068679
1.57831321869
1.57747194572
1.57987201511
1.58088850454
1.57881419506
1.57895241585
1.57808708547
1.57995754865
0.00819392252317
0.00459842005961
0.0078539332452
0.0039856202399
0.0127476604694
0.0102592201446
0.0136927476132
0.0104492418622
0.0130247548846
0.0100039228931
0.013955823611
0.0128289846191
0.0131388047813
0.0130914413116
0.0133332332936
0.0131320152933
0.013249765914
0.0132439780055
0.0107382190719
0.0119497527769
0.010928581985
0.0121638801719
0.0109441500219
0.0120460796606
0.0110645671718
0.00771049558116
0.00945729920005
0.0078999922919
0.00943706586745
0.00781407136516
0.00958239893573
0.00801875133471
0.0043530539617
0.00621344878387
0.00440872693343
0.00610038497855
0.00433440470532
0.0062934572099
0.00441996429365
0.000859442666691
0.00259387886268
0.000830166156543
0.0024676859891
0.000829189738672
0.00249478357447
0.000783543217167
1.59038407206
1.59115739952
1.59006589836
1.59053682484
1.58993139659
1.59005451855
1.58970163993
1.53624853145
1.17485724377
1.57461819731
1.53766721218
1.17123221464
0.965684850292
0.367276038164
0.960189462913
0.357711862881
0.00123747078329
0.149220212289
0.00815748715557
9.14893494021e-05
0.139276696392
0.00608658344273
0.000912547345159
0.00309843890281
0.000879412640217
0.00278715640361
0.000822532842233
0.00244840548979
0.000771027726881
1.59006582012
1.59168493031
1.59038381969
1.59005443451
1.589701571
1.59053655703
1.58993117591
1.1748573681
1.57247823831
1.53766729488
1.17123221707
1.57461849754
0.367276175362
0.960189472768
0.357711890461
0.00815754585416
0.00123758370945
0.139276708408
0.00608664951632
9.16080801378e-05
0.000879402108871
0.00327289545852
0.000912521436859
0.00244836099218
0.00077102713453
0.00278710284513
0.000822533150693
1.59129131499
1.59525472057
1.59239439623
1.59183113821
1.59062923698
1.59395891796
1.59165367447
1.58778463254
1.58989106954
1.58794638511
1.58930689039
1.58771398214
1.589509572
1.58780636298
1.58468516467
1.58625935341
1.5847891378
1.58623723714
1.5847764495
1.58622215096
1.58483166315
1.58200867533
1.58343636125
1.58219366774
1.58341892876
1.582196895
1.58351420955
1.58233421599
1.57977816498
1.58107304485
1.58023500026
1.58088607163
1.58022844505
1.58126271558
1.58055251043
1.57747228536
1.57945320252
1.57980746178
1.57881450524
1.57895277892
1.57987245546
1.58088903691
1.57995790014
0.00459862417428
0.00819410297743
0.00398578653686
0.00785412749151
0.0136928421643
0.0105677919066
0.0127477715125