/*--------------------------------*- C++ -*----------------------------------*\
  =========                 |
  \\      /  F ield         | OpenFOAM: The Open Source CFD Toolbox
   \\    /   O peration     | Website:  https://openfoam.org
    \\  /    A nd           | Version:  7
     \\/     M anipulation  |
\*---------------------------------------------------------------------------*/
FoamFile
{
    version     2.0;
    format      ascii;
    class       surfaceScalarField;
    location    "9";
    object      phi;
}
// * * * * * * * * * * * * * * * * * * * * * * * * * * * * * * * * * * * * * //

dimensions      [0 3 -1 0 0 0 0];

internalField   nonuniform List<scalar> 
14871
(
-1.80616366346e-13
1.01011231065e-12
1.2119254831e-13
2.99311511297e-13
-6.03446464247e-14
-3.21083844082e-12
2.46544796012e-12
4.63292118557e-13
5.60078867058e-13
-4.45760327102e-14
-1.00523078033e-13
-7.25366477624e-14
-1.00802881174e-14
-2.00693881113e-12
1.7456453804e-12
1.60323296692e-13
1.54541015731e-13
-8.94388651717e-15
-1.88077045465e-14
-1.57390547708e-14
-8.82363325062e-15
-1.59554369568e-12
1.49318356329e-12
1.46208011816e-13
1.28472902062e-15
-9.03601060549e-15
-1.35478145191e-14
-1.37252049263e-14
-2.41981248209e-14
-1.39829303842e-12
1.26390331416e-12
3.74601337635e-13
-1.17473138695e-13
-2.66281706576e-14
-3.39198941025e-14
-3.7992294618e-14
-6.98587091778e-14
1.03562108666e-12
-2.6597424137e-13
-1.03843081614e-12
-6.99992775758e-14
-9.47308749553e-14
-9.68811117257e-14
9.55650851738e-14
1.2957628077e-13
2.22838851606e-13
1.52273442529e-13
1.37163810361e-14
2.42867035513e-14
1.19952965314e-13
-4.18512540945e-13
1.15852171382e-13
1.75811968034e-14
2.02284803748e-14
2.69580498757e-14
2.69001352079e-14
2.71873823787e-14
2.58484274589e-14
1.75076583162e-14
-5.20756101872e-13
8.59087103395e-13
-3.29838966315e-13
-1.00575963077e-13
1.60809630862e-14
3.06921556802e-14
2.780301531e-14
1.62293638438e-15
-1.1062658179e-12
1.25957318209e-12
-7.54352530686e-14
-9.13144699293e-14
1.60629548968e-15
5.4851185161e-15
4.72777917738e-15
-2.25981481808e-15
-1.35364243614e-12
1.40689737125e-12
4.32775730906e-15
-5.01243659583e-14
-1.58767984247e-15
-2.21662948545e-15
-1.39430948685e-15
-1.47571586902e-15
-1.43773111845e-12
1.4544297567e-12
8.43366165783e-15
-2.03881888979e-14
-6.40903258369e-16
-1.92743367511e-15
-7.00060771686e-16
4.63470254993e-15
-1.45581578869e-12
-1.32808766941e-14
3.78701839955e-14
9.07620690394e-15
4.24573288937e-15
3.71609055335e-15
2.33949251981e-13
2.61150522457e-13
4.25482291811e-13
4.88971136911e-13
-3.82626433263e-14
2.54877517417e-14
9.72373434263e-13
2.90401471622e-13
-3.97293930096e-13
-3.25342233895e-12
2.81563369319e-12
2.14560957897e-13
6.20521618009e-13
-1.83069943558e-13
-2.55441190137e-12
2.41493904935e-12
1.09273314827e-13
2.13269480489e-13
-1.9269270613e-13
-2.36829687613e-12
2.4021412574e-12
1.27394232378e-13
3.14540916197e-14
-5.25995976833e-13
-2.53332090377e-12
2.80428849945e-12
4.06671943055e-13
-1.51643561817e-13
-1.69496011724e-12
-3.2667306751e-12
3.88600719856e-12
1.71593903286e-12
-6.40255438313e-13
-3.53639362743e-13
-6.00229573138e-13
2.8996663252e-13
7.3631090035e-13
-7.24088882648e-14
-1.71641968215e-13
1.3517420881e-12
2.23545396649e-12
-2.66246126721e-12
8.64507655418e-13
-5.06261938179e-13
-2.87611074466e-13
-8.237274528e-13
5.65173623048e-13
-2.23273403944e-12
2.14401204033e-12
-5.58055424179e-13
8.1603793335e-14
1.09846364282e-13
-2.08584299094e-12
2.06216642126e-12
-7.99252761726e-14
-6.24451987122e-15
-7.13884045901e-15
-2.06410398289e-12
2.08160311044e-12
1.01555244631e-14
-2.05158090158e-14
-1.24599496955e-14
-2.10104903566e-12
2.12027865349e-12
1.3022807364e-14
-1.97924738882e-14
5.89342355518e-15
-2.12248103058e-12
3.97189958317e-15
4.04566273423e-14
3.51905111793e-13
3.59755223282e-13
6.90179245158e-13
6.70319122511e-13
-9.45490984039e-19
-7.43745669138e-15
9.67043156464e-13
2.90395245699e-13
-3.11277482063e-18
-3.20594925402e-12
2.80928755364e-12
-2.14553403094e-13
6.11218216362e-13
2.07191754595e-18
-2.60448208369e-12
2.51019913809e-12
-1.09268277427e-13
2.03549150936e-13
4.22931776089e-19
-2.51780464499e-12
2.62992959842e-12
-1.27393261156e-13
1.52678838438e-14
2.92730917208e-19
-2.91764660707e-12
3.54822408482e-12
-4.0667514265e-13
-2.23902627781e-13
2.79435247121e-18
-4.75903114924e-12
7.11302943412e-12
-1.71594209678e-12
-6.38058981796e-13
3.68184103001e-19
-1.44281859737e-12
-1.15153529253e-11
5.6390126197e-12
2.10264545567e-12
2.67374467298e-12
8.2242322978e-12
-1.21847015531e-12
-1.21505108967e-12
-1.52675236408e-12
-1.72119065956e-12
1.81925899303e-19
-7.62739328394e-12
7.56745111338e-12
5.99419885557e-14
-2.03744927951e-19
-7.17242353782e-12
6.69839488984e-12
4.74028851931e-13
-9.62559432433e-12
1.43218985915e-17
5.79156988017e-12
2.66243985333e-12
1.1715702687e-12
5.14908628022e-18
-3.80510297749e-12
2.88282194341e-12
5.58041607131e-13
3.64234269588e-13
-2.86919703959e-18
-2.43770485627e-12
2.25947979487e-12
7.99254602966e-14
9.83024670419e-14
-4.38469505503e-18
-2.19184439588e-12
2.18895424191e-12
-1.0140824541e-14
1.3035365418e-14
-6.21692869123e-18
-2.20320905994e-12
2.22492897885e-12
-1.30149236377e-14
-8.69877631482e-15
-1.63736063572e-18
-2.22839293118e-12
-3.9673286928e-15
5.66150554642e-14
3.73630981133e-13
3.71387312233e-13
7.12504825124e-13
7.1822335243e-13
3.82610851024e-14
-5.60988331546e-14
9.77473897931e-13
2.90363859777e-13
3.97283546103e-13
-3.31274254234e-12
2.7659452518e-12
-4.63286183092e-13
6.12799927657e-13
1.83071003393e-13
-2.40684174893e-12
2.1923605797e-12
-1.60319572338e-13
1.91729737937e-13
1.92695260681e-13
-2.07660931515e-12
2.01889022937e-12
-1.46210882559e-13
1.12347070189e-14
5.25997495938e-13
-2.00229145016e-12
2.00115283295e-12
-3.74609773224e-13
-1.50249105486e-13
-1.03562743639e-12
-4.2862399158e-13
1.69496987492e-12
-1.98208823995e-12
3.93732304972e-13
2.8033983203e-13
4.45634241342e-13
6.31662946555e-13
3.53639101918e-13
-1.78194056483e-13
-1.30743825447e-13
-4.47012199495e-14
-6.80510886626e-15
-1.35172780888e-12
6.70887193138e-13
4.18504507374e-13
3.42775089909e-13
-1.12886480868e-15
-5.12583084955e-14
-2.12477928602e-14
-5.65169009837e-13
-1.13583782883e-12
1.42338638141e-12
3.29830797569e-13
-5.22103441037e-14
-1.09857146387e-13
-1.60998692157e-12
1.71749747917e-12
7.54359025206e-14
-7.30893133202e-14
7.12700832051e-15
-1.7887623329e-12
1.83335084348e-12
-4.31253747306e-15
-4.74029794288e-14
1.24476499787e-14
-1.86328720965e-12
1.88153742216e-12
-8.42045100145e-15
-2.22774107531e-14
-5.90170229468e-15
-1.88036027193e-12
1.3282482529e-14
4.29165826367e-14
3.24354756292e-13
3.09138993668e-13
5.79270923851e-13
6.17297823192e-13
1.80614866511e-13
9.9883203373e-13
-2.1693897956e-13
2.87492099925e-13
-3.72825537547e-13
6.03410288439e-14
2.96455327818e-13
-2.99017790697e-14
4.59309991644e-14
-1.81865655407e-13
1.00795283558e-14
1.66634459315e-13
-3.78547121752e-15
8.93710056894e-15
-1.40243562858e-13
8.82424790479e-15
1.34671459534e-13
-2.66160185777e-15
-5.90897964252e-16
-1.2083915005e-13
2.41974425005e-14
1.12305855339e-13
-7.16830156857e-15
-8.49644820076e-15
6.98593198464e-14
-7.59605825786e-14
4.89097314048e-14
-2.09028529603e-14
-2.19063012192e-14
2.45296605624e-14
-1.37149046394e-14
-1.89122095631e-14
2.59236472268e-15
5.50449533328e-15
-3.28491375037e-14
-1.75067357315e-14
5.08511613926e-14
4.68736088694e-15
-5.18351995197e-15
-9.45204895164e-14
-1.62540045373e-15
1.02062953206e-13
3.18685583528e-16
-6.23712734637e-15
-1.17841641696e-13
2.25366673957e-15
1.20130957621e-13
-7.75667450049e-16
-3.76880309041e-15
-1.24960847749e-13
1.4705037576e-15
1.25849665977e-13
-5.87596066624e-16
-1.77295021796e-15
-1.28502268809e-13
-4.63726767305e-15
1.29971688854e-13
9.01954680507e-16
2.26499501665e-15
-3.28367432476e-13
-1.03197822501e-12
5.6747264081e-12
1.13176229909e-12
6.22025346608e-13
-3.2681978803e-13
-3.72401243438e-13
-3.68947341e-13
-8.57524437788e-13
-5.05963035702e-13
-5.71515355758e-12
5.35003807347e-12
1.00655716753e-12
7.22045789623e-13
-2.90785377645e-13
-1.87401850562e-13
-5.04432337962e-12
4.78965996898e-12
4.46384779091e-13
2.86465858573e-13
-9.06214839971e-15
-1.3048391713e-13
-4.57626064373e-12
4.35329710192e-12
3.49053183932e-13
1.3456422075e-14
2.22224463152e-13
-2.77892755951e-13
-4.05736511681e-12
3.57826509132e-12
7.52702831885e-13
-2.17934514425e-13
4.7318530541e-13
-1.55483420119e-13
-2.82145720565e-12
1.89182782616e-12
-4.48423641617e-13
-1.6068724841e-13
-1.58040400082e-13
-1.61587729453e-13
3.17816583065e-13
4.46291832712e-13
4.54906561815e-13
3.21651830911e-13
-2.63609747009e-13
5.60312660821e-14
-7.56485904473e-14
9.85127927674e-13
-1.15190772763e-12
2.46412459942e-13
7.27283922144e-14
5.61597551939e-14
7.47058101979e-14
1.31961213607e-13
4.93491087637e-13
-2.26316260177e-12
3.14774126052e-12
-1.44324118702e-12
-6.67897770694e-14
1.53890175e-13
1.99861379624e-13
-3.76044918674e-12
4.09736005966e-12
-5.65606543118e-13
-1.25055884525e-13
9.7569570865e-14
4.58135726761e-14
-4.28970514499e-12
4.38414868041e-12
-1.47947697413e-13
-8.98789782875e-14
5.42680861908e-14
-1.05999930803e-14
-4.43524426013e-12
4.47404641167e-12
-3.06032060711e-14
-5.18670351227e-14
4.19670193637e-15
7.00327871369e-15
-4.54604663134e-12
4.58839982888e-12
-3.91005432599e-14
-1.38765857096e-14
-1.02244267541e-15
2.59340444478e-15
-2.14700487168e-15
-1.0659199944e-12
-7.2232440998e-13
5.79298752701e-12
3.32311208679e-13
6.62945668438e-13
3.15727075646e-11
2.43985969442e-17
1.72799016866e-12
-9.70837430878e-13
-7.14622597486e-13
-9.7330216859e-13
-6.97224924167e-13
-9.44902681365e-13
-7.15810313692e-13
-9.63963792978e-13
-7.11000104453e-13
-6.64144960417e-12
-6.61443913788e-12
-6.69025498342e-12
-6.66291497451e-12
3.39785635705e-11
-5.95970105982e-18
8.28856795247e-13
-4.031805047e-13
-2.64281880962e-13
-4.01515767148e-13
-2.52987310286e-13
-5.13655429039e-13
-4.27729310069e-13
-5.36721041442e-13
-4.3462499038e-13
3.61004142664e-11
-1.53444266136e-17
2.88057473547e-14
-6.76544852659e-14
3.75650666011e-14
-4.74048903859e-14
6.9252985475e-14
-4.66220211102e-13
-5.86741642633e-13
-4.90140799818e-13
-5.99307671605e-13
8.60927015923e-12
-1.70384525315e-17
-9.3820582333e-13
2.99781756046e-13
5.57068444147e-13
4.37012297622e-13
6.06700130106e-13
-1.09990210661e-12
-1.57277832661e-12
-1.14059899102e-12
-1.59856767245e-12
1.12107338862e-11
9.01096182792e-12
1.1718971128e-11
1.03267854703e-12
-2.8902022368e-12
8.3528613797e-12
2.90357169556e-12
-7.89641534869e-13
2.5144267896e-13
-8.52735401365e-13
-1.38673664044e-12
6.43928807939e-13
1.56061088153e-12
-2.16510722865e-13
4.6307137537e-11
-6.16502179239e-17
3.42423832424e-12
-1.58400845582e-12
-6.93508551573e-13
-2.65407020144e-12
-1.70519936936e-12
3.36154977131e-12
3.77425667162e-12
3.41962508167e-12
4.03595026425e-12
-6.11155856951e-12
-2.27735631573e-11
-5.92559190027e-12
-2.2875191479e-11
3.84786980948e-11
-2.76476595305e-17
1.62461046714e-12
-3.63708543486e-13
-2.2289082697e-13
-7.49298218044e-13
-5.0215453375e-13
2.14214688916e-12
1.64860484658e-12
2.38340743556e-12
1.86776923586e-12
3.57112719196e-11
1.97109709967e-17
5.82724473833e-13
-9.0136954224e-14
-6.37342981248e-14
-2.15576169225e-13
-1.43965586715e-13
7.4044836968e-13
4.90114386457e-13
8.79502106453e-13
5.88043079166e-13
3.48618194741e-11
4.45121975276e-17
1.12993632408e-13
7.61240090581e-15
2.93301196687e-14
-3.67736592457e-14
7.63241360058e-15
1.88607220494e-13
1.34409313391e-13
2.390440366e-13
1.66556248878e-13
7.88327406841e-12
5.58053014697e-17
-5.88018470575e-14
7.9653153166e-14
9.99431013145e-14
6.88883958824e-14
9.27120041248e-14
9.06958389616e-14
1.24669243868e-13
1.05580037672e-13
1.14597227561e-13
8.25490921361e-12
8.78872039317e-12
9.21695021491e-12
9.78566008412e-14
1.31236072291e-13
7.63336995521e-12
-1.31377750754e-14
3.39440862187e-14
-1.06087109354e-12
-7.6839396843e-18
5.7370715306e-12
-3.32301156667e-13
6.56108404539e-13
3.15726824199e-11
-9.44886190202e-13
1.72798602104e-12
-9.73300129319e-13
-6.97226528168e-13
-9.70825769133e-13
-7.14618278905e-13
-6.6144378253e-12
-6.64143366549e-12
-6.66291517488e-12
-6.69024127895e-12
-7.15807017264e-13
-9.63950757257e-13
-7.10999398582e-13
3.39785363413e-11
-5.13659708338e-13
8.28860378656e-13
-4.01516235481e-13
-2.52987289709e-13
-4.0318141641e-13
-2.64283713193e-13
-4.27735892953e-13
-5.3672771995e-13
-4.34632343414e-13
3.610039139e-11
-4.66227604769e-13
2.88089942722e-14
-4.74075046074e-14
6.92522097971e-14
-6.76552233411e-14
3.75610982706e-14
-5.86747187969e-13
-4.90150982042e-13
-5.99314235912e-13
1.12107240089e-11
-1.09990925911e-12
-9.38204264287e-13
4.37002839488e-13
6.06695104955e-13
2.99775889471e-13
5.57064590182e-13
-1.57278255729e-12
-1.14061269417e-12
-1.59857370562e-12
8.60927087515e-12
1.17189685618e-11
9.01095311024e-12
1.02318553163e-12
-3.80143973793e-18
1.38847847686e-11
-2.90356281667e-12
-7.93678714573e-13
1.8544819789e-12
2.33250375263e-19
-1.36836474654e-12
9.90122555254e-12
3.41474241862e-12
3.42738874001e-12
9.95054188739e-12
-1.8648245678e-11
-2.26307907295e-12
-1.99154826837e-12
-2.00012832236e-12
-2.27701336361e-12
-1.5396298202e-15
-2.02342002777e-19
-1.32070401479e-11
1.32193548401e-11
-1.0774860061e-14
-3.61005724073e-13
2.05710160795e-18
-1.33432650185e-11
1.34557128214e-11
2.48555865592e-13
4.63071874634e-11
3.36150602069e-12
3.42422721823e-12
-2.65407279258e-12
-1.70520146183e-12
-1.58403507001e-12
-6.93511681645e-13
-2.27735695963e-11
-6.11157217217e-12
-2.28752015598e-11
-5.92560016019e-12
3.77423011366e-12
3.4195924314e-12
4.03593222244e-12
3.84787233322e-11
2.14212448635e-12
1.62459556643e-12
-7.4931182911e-13
-5.02163354222e-13
-3.63712511642e-13
-2.22888967906e-13
1.64860078538e-12
2.383384527e-12
1.86776540405e-12
3.57112654557e-11
7.40461419287e-13
5.82731147133e-13
-2.15592329553e-13
-1.43975196358e-13
-9.01189285463e-14
-6.37190621647e-14
4.9013497394e-13
8.7949213544e-13
5.88052509931e-13
3.48618073631e-11
1.88643258074e-13
1.13011439613e-13
-3.67834770993e-14
7.62576924805e-15
7.63904028781e-15
2.93441492737e-14
1.3443974869e-13
2.39050199726e-13
1.66567889217e-13
8.25491478324e-12
9.07242617201e-14
-5.87855876466e-14
6.88802953759e-14
9.27067495775e-14
7.96679408694e-14
9.99444457645e-14
7.88327350313e-12
9.21693957974e-12
8.7887350067e-12
1.24685301736e-13
1.05593563767e-13
1.14603417072e-13
6.2164401457e-14
-2.61105561351e-18
8.10524267355e-12
1.31355089688e-14
7.43786208972e-14
-1.06247721471e-12
7.22307042462e-13
5.80737560958e-12
-1.13175426098e-12
6.64548823584e-13
-9.57778499941e-13
-6.36387732028e-12
6.5351300943e-12
-1.00655572569e-12
8.48196407637e-13
-3.74919511434e-13
-6.4956638018e-12
6.42057766364e-12
-4.46387226471e-13
3.82729485896e-13
-3.97101059041e-14
-6.31602752368e-12
6.19161053745e-12
-3.49058686667e-13
4.69525973414e-14
2.67207404497e-13
-6.05666875446e-12
5.71298888202e-12
-7.52709000534e-13
-2.7074079575e-13
7.38470719625e-13
-5.25452704446e-12
-1.89182809569e-12
-6.6390943874e-13
2.89020093653e-12
1.1907617344e-12
8.77160243971e-13
8.95511392708e-13
1.21815964793e-12
1.26964288164e-13
8.52736157491e-13
-5.66830846583e-13
-2.99729102191e-13
-1.1314049644e-13
-6.2461991981e-13
-1.05750341402e-12
3.26498855774e-12
1.15189041823e-12
6.2676219624e-13
-1.13500746468e-14
-4.84775809784e-12
5.41474581004e-12
1.44323225295e-12
1.43249991725e-13
9.12868314767e-14
-5.90454792884e-12
6.01078812889e-12
5.65613218642e-13
-2.26995475289e-14
8.30130284434e-14
-6.12520684983e-12
6.13544432187e-12
1.47968286723e-13
-5.26088690151e-14
6.28957741032e-14
-6.17712092796e-12
6.22433722431e-12
3.06202728662e-14
-5.00360985456e-14
2.41405312703e-14
-1.31240536466e-13
-6.30454669214e-12
6.38498500218e-12
3.91071455579e-14
-1.24454437575e-14
-1.33285441142e-13
3.28363626086e-13
-3.15373905979e-13
9.48280621106e-14
1.27546770686e-12
-1.62259171989e-13
-9.41644365381e-13
5.05962426258e-13
2.54154817598e-12
3.77154292918e-13
-1.3022328212e-13
-9.96085937363e-14
-7.5835679759e-14
-5.39544746603e-13
-9.37691152254e-13
-5.37857984221e-13
-4.32442554336e-14
1.87403633994e-13
-2.24680107469e-12
2.05414873551e-12
1.15320113584e-13
-3.09890437913e-14
-2.03690203838e-14
-1.54693204111e-14
-1.14542441326e-15
1.30488176395e-13
-1.92138994884e-12
1.78988434491e-12
-9.97098153015e-15
5.0367549667e-15
2.24853010465e-15
4.84841025899e-15
3.01433419767e-14
2.77895268455e-13
-1.62137622149e-12
1.34265358405e-12
-1.12994065391e-13
3.65990527313e-14
2.18906473079e-14
2.51882948526e-14
5.94758521309e-14
1.55482640527e-13
-2.86246623776e-13
2.08760775334e-13
-7.14422152778e-14
-6.60314045138e-14
-2.47412137226e-14
-5.60265121967e-14
3.9900622367e-14
-3.57750781297e-15
1.71175924105e-14
2.7326549814e-14
3.36352781271e-14
-4.93487048151e-13
-6.54984509776e-13
1.13228477325e-12
-8.87837633924e-14
3.39518291196e-14
1.85161086472e-14
1.88676063809e-14
2.97832197659e-14
-1.99867173483e-13
-1.4830740752e-12
1.68080681995e-12
-9.22425072956e-14
2.8517757196e-14
1.84545933825e-14
1.76217968573e-14
1.68940849687e-14
-4.58232537066e-14
-1.79070859565e-12
1.83831296336e-12
-5.71050067408e-14
1.6792484583e-14
1.11321113706e-14
1.05054097596e-14
9.8094247306e-15
1.05966422084e-14
-1.85386639886e-12
1.84173798042e-12
-3.3954713349e-14
1.16234433281e-14
6.75716292382e-15
7.29639383943e-15
-3.09557459783e-16
-4.20024358408e-15
-5.67367362797e-13
6.04566345018e-13
-3.06874991381e-14
-2.00232314638e-15
-3.24628443999e-13
-2.85183809017e-13
5.54347723017e-12
1.11384923323e-12
6.38230500343e-15
-3.24680242604e-13
-3.6472437407e-13
-3.64491903123e-13
-4.00425036803e-13
-4.91815597441e-13
-5.70488957452e-12
5.58928166288e-12
9.98684209723e-13
9.16433543528e-15
-1.76055488891e-13
-1.94833455628e-13
-5.53010005446e-12
5.4362453576e-12
4.64090487981e-13
6.53152281667e-16
-8.9802684207e-15
-1.33848482264e-13
-5.31105517612e-12
5.09422664414e-12
3.6436026445e-13
-4.70298327082e-15
1.36654520278e-13
-2.77044689516e-13
-4.74165336639e-12
4.11832529136e-12
7.71027748303e-13
-7.30950530528e-15
2.68441374192e-13
-1.52387498868e-13
-3.16088442801e-12
1.88031881103e-12
-6.94033761962e-15
-1.55797825884e-13
-1.52078334742e-13
-1.55335208681e-13
4.78861687027e-13
3.38641029076e-13
4.78858974344e-13
3.38302048579e-13
-1.51316617351e-13
5.37240177525e-14
-5.27236115012e-14
1.13267866852e-12
-1.1949852772e-12
8.05782150363e-15
7.57562143376e-14
5.33144048983e-14
7.54937023058e-14
8.27972859788e-15
6.25269239123e-13
-2.75076031705e-12
3.86956732984e-12
-1.75308573486e-12
7.29748580732e-16
6.1204994679e-14
2.88319266808e-13
-4.65205890796e-12
5.06802128915e-12
-7.66689790002e-13
1.20314525236e-15
5.09587777399e-14
8.29950556361e-14
-5.30130074684e-12
5.40205216291e-12
-2.35454056883e-13
7.48810705643e-16
3.31102276701e-14
-9.08679405956e-15
-5.44993405418e-12
5.47764703981e-12
-5.02501229187e-14
-1.48629127029e-15
-1.26720184755e-15
1.58021805157e-14
-5.53795319035e-12
5.55506710066e-12
-1.40347795368e-14
-3.40626550871e-15
-6.47521683491e-15
-1.18484871049e-15
-6.54755009943e-15
-3.16880053378e-13
-7.14109220516e-13
5.69736828364e-12
3.28935783535e-13
4.68520636462e-15
3.36510818228e-11
1.68087895038e-17
-1.63523734536e-12
-9.590399279e-13
-7.18025571765e-13
-9.57280206018e-13
-7.17643737091e-13
-6.74469038963e-12
-6.72494559968e-12
-6.74288069165e-12
-6.72336183689e-12
3.72709520388e-11
-8.11048415554e-18
-7.9062829735e-13
-5.53187407086e-13
-4.46315065266e-13
-5.53702364776e-13
-4.47181853256e-13
3.95297420599e-11
-1.40001942954e-17
-4.10849184366e-14
-4.95576519704e-13
-5.97912644111e-13
-4.96574028144e-13
-5.98825398753e-13
9.40565692327e-12
-1.33811431876e-17
8.91443875321e-13
-1.13726492797e-12
-1.59272215038e-12
-1.13820075069e-12
-1.59365375727e-12
1.21744886855e-11
9.40657382471e-12
1.21752316949e-11
-2.93691911844e-12
4.93576043479e-13
8.87759999775e-12
2.98008394737e-12
-8.67930256392e-15
9.58111204381e-14
-8.53117799457e-13
-1.42871267893e-12
6.53232772117e-13
1.58105001378e-12
-4.82634053971e-14
4.85703159762e-11
-6.77562801362e-17
-3.32075278878e-12
3.43971651853e-12
4.09691622619e-12
3.43794717859e-12
4.09701064962e-12
-5.78591148559e-12
-2.26641938462e-11
-5.78212138639e-12
-2.26646754417e-11
4.28224235343e-11
-2.60272624928e-17
-1.6169656027e-12
2.49989646081e-12
1.99369952368e-12
2.50106411574e-12
1.99482093016e-12
4.07318298891e-11
3.75049224698e-17
-5.74141242294e-13
9.6376097883e-13
6.59102650958e-13
9.64810916999e-13
6.59786669514e-13
4.00062763053e-11
6.73788663467e-17
-1.05066674843e-13
2.75943487415e-13
1.95516178634e-13
2.76431839226e-13
1.95711238197e-13
9.60657590931e-12
7.17943678353e-17
5.34112658135e-14
1.20536387507e-13
1.37015141517e-13
1.20492376133e-13
1.36777109659e-13
1.0080813616e-11
9.60902494488e-12
1.00828311184e-11
5.13201932439e-14
9.37901897601e-14
9.45326994085e-12
1.05592456088e-14
-2.36248514754e-15
-3.14968915756e-13
-4.77385911319e-18
5.6398154371e-12
-3.28927261703e-13
4.08551388026e-15
3.36510641698e-11
-9.59028177949e-13
-1.63523701274e-12
-6.72494453029e-12
-6.74467757538e-12
-6.72336186374e-12
-6.74286868499e-12
-7.18026249761e-13
-9.57268212919e-13
-7.17644202406e-13
3.7270932487e-11
-5.53193929958e-13
-7.90634026727e-13
-4.46324801341e-13
-5.53710425759e-13
-4.47192185728e-13
3.95297280406e-11
-4.95584998725e-13
-4.10967910408e-14
-5.97921105965e-13
-4.96582744413e-13
-5.98832419137e-13
1.21744778372e-11
-1.13727247761e-12
8.91437959635e-13
-1.59272258886e-12
-1.13820956508e-12
-1.59365939487e-12
9.40565291029e-12
1.21752269593e-11
9.40656724636e-12
5.03415812657e-13
-4.02715985562e-18
1.46598489265e-11
-2.98007567973e-12
-8.69845920613e-15
7.13964357377e-13
1.72942304317e-18
-7.708284223e-15
3.46892195041e-12
1.00510594212e-11
3.46750067465e-12
1.00558981967e-11
-1.91236174252e-11
-2.01958522915e-12
-2.29344755048e-12
-2.01915529553e-12
-2.29383080114e-12
1.34025698343e-14
7.14207282217e-19
-1.33963424723e-11
1.3390359895e-11
-7.42070667243e-15
-6.18469075629e-14
4.24402770726e-19
-1.34572258546e-11
1.34902500635e-11
2.8822276009e-14
4.8570386718e-11
3.43967722617e-12
-3.32076603303e-12
-2.26641935477e-11
-5.78591562403e-12
-2.26646836551e-11
-5.78212363381e-12
4.0968959848e-12
3.4379223648e-12
4.09698641922e-12
4.28225020649e-11
2.49988855945e-12
-1.61695897431e-12
1.99370180164e-12
2.5010544494e-12
1.99482256862e-12
4.07318581664e-11
9.63780143637e-13
-5.74146854919e-13
6.59126149948e-13
9.64815262618e-13
6.59805010315e-13
4.00062718206e-11
2.75969000226e-13
-1.05069022185e-13
1.9554402654e-13
2.76446923314e-13
1.95724457223e-13
1.00808149832e-11
1.20552070583e-13
5.3422431011e-14
9.60657629194e-12
1.00828158942e-11
9.60904508828e-12
1.37033802752e-13
1.20510694561e-13
1.36785041127e-13
3.9963820781e-14
1.24632043427e-18
1.00534680513e-11
-1.05526470998e-14
-2.03250782494e-15
-3.12384592583e-13
7.14097947234e-13
5.70649018949e-12
-1.11384027942e-12
5.63673513109e-15
-4.79374959507e-13
-6.46829504766e-12
6.97401836366e-12
-9.98685515228e-13
1.33029307778e-14
-2.39442355507e-13
-7.25343058224e-12
7.39904795869e-12
-4.64096430456e-13
4.72376618182e-15
-3.28314382845e-14
-7.42305021809e-12
7.32807881169e-12
-3.64365208555e-13
-3.42062135103e-15
1.62971971443e-13
-7.13881945805e-12
6.61779018675e-12
-7.7103388699e-13
-8.18559373828e-15
3.91374851471e-13
-5.91253775504e-12
-1.88031854627e-12
-9.10229426937e-15
2.936915591e-12
9.50637433665e-13
1.2857847684e-12
9.49794212618e-13
1.28745178852e-12
5.06079684419e-14
8.53119485566e-13
-5.81812349386e-13
-2.96308417152e-13
-2.56066868878e-14
-3.4742636507e-13
-1.05560276672e-12
3.63863413273e-12
1.19496722212e-12
9.1283144582e-15
-1.14880087431e-13
-5.70823400053e-12
6.56854045433e-12
1.75307913556e-12
1.37131259484e-15
1.47077531013e-15
-7.27609846621e-12
7.46939228915e-12
7.667036734e-13
2.28576207631e-15
2.84814101706e-14
-7.6343043531e-12
7.64434430985e-12
2.35471200191e-13
1.96350349835e-15
3.11725223155e-14
-7.68664147416e-12
7.72648823878e-12
5.02663015866e-14
-7.36896580958e-16
2.05992820509e-14
-9.37874536884e-14
-7.81529889525e-12
7.8778911856e-12
1.40348361569e-14
-3.43894510636e-15
-2.84594734977e-14
3.2462637738e-13
-3.12526366553e-13
1.40205796949e-14
1.25233890547e-12
-9.14142325736e-13
-2.00260242913e-13
4.91816119978e-13
2.57177825026e-12
-4.19871791891e-16
-5.19700807583e-13
-9.10976227885e-13
-5.18094978398e-13
-7.01940015376e-14
1.94835219774e-13
-2.40276800626e-12
2.28164350488e-12
-3.51671789687e-15
6.52491339642e-15
1.33851395905e-13
-2.18077915056e-12
2.04423898835e-12
-3.83614781163e-15
7.10506886382e-14
2.77045478969e-13
-1.84421902364e-12
1.50050931345e-12
-4.38645772382e-15
3.93730575544e-14
1.52386514822e-13
-3.15893470813e-13
2.2438799847e-13
-7.95202276123e-14
-2.07349619685e-14
-1.77424041216e-14
-5.37195526819e-14
5.53699552958e-14
-1.25279447759e-14
1.86612614852e-14
9.95853945607e-15
4.07805034143e-14
-6.25268207379e-13
-7.88633401301e-13
1.37210473488e-12
1.01637012112e-15
5.12956075357e-14
-2.88316616204e-13
-1.80376151573e-12
2.0396393712e-12
1.14315780769e-15
3.42797426029e-14
-8.29965180996e-14
-2.16820159001e-12
2.21660875211e-12
3.09617061621e-16
2.1091548534e-14
9.08870989394e-15
-2.22493323114e-12
2.19592676812e-12
-1.17379519895e-15
3.85691250129e-15
1.26547184624e-15
-6.94031485118e-13
7.4037658998e-13
-4.96691323041e-14
-1.79872520712e-15
-3.23652312828e-13
2.70006782486e-13
5.59242880909e-12
1.11223241051e-12
-6.01000616819e-13
-3.23105046691e-13
-3.63628329763e-13
-3.6328168871e-13
3.8214421325e-13
-5.05399076683e-13
-5.73342631174e-12
5.55604185327e-12
1.00370470019e-12
-7.03065378826e-13
1.75942103956e-13
-2.01047778019e-13
-5.42425295e-12
5.27633767964e-12
4.61946802244e-13
-2.88925858882e-13
1.85935842136e-14
-1.38723894131e-13
-5.11821232718e-12
4.89448557578e-12
3.66887315483e-13
-2.30302556087e-14
-1.22720882364e-13
-2.86041625353e-13
-4.55699519817e-12
3.97604873863e-12
7.83149515228e-13
2.06559450892e-13
-2.55332260074e-13
-1.56368123548e-13
-3.07831814341e-12
1.91005797737e-12
4.37679740331e-13
-1.5960803742e-13
-1.57023445092e-13
-1.60695905085e-13
4.73537064103e-13
3.35603353341e-13
4.74493482569e-13
3.3597462521e-13
1.35502311557e-13
5.56579123007e-14
-6.8333876065e-14
1.10279653945e-12
-1.20608930028e-12
-2.3003001079e-13
7.71555913482e-14
5.62022146543e-14
7.71379937373e-14
-7.73635176694e-15
6.02496382749e-13
-2.62954001437e-12
3.67005840849e-12
-1.69438582231e-12
5.91073918605e-14
-6.34538873186e-14
2.68554965708e-13
-4.39212639566e-12
4.77668820734e-12
-7.15529835513e-13
1.25866943846e-13
-5.2745598018e-14
7.35383842986e-14
-4.99277486243e-12
5.08986353287e-12
-2.09882875294e-13
9.20014217551e-14
-3.02365604616e-14
-1.0151204852e-14
-5.13880654305e-12
5.17211579181e-12
-4.20392553683e-14
4.91177764516e-14
-1.32857711337e-15
-8.99414279923e-15
-5.23679208863e-12
5.26220617229e-12
-7.85547828962e-15
6.95360541171e-15
-6.58732415603e-15
-1.29148536939e-15
-6.31052887822e-15
3.07350778909e-13
-7.11523041408e-13
5.72922386499e-12
3.2816934355e-13
-6.53220946375e-13
3.15418871105e-11
2.29664449728e-17
-9.54166538604e-13
-9.56740909089e-13
-7.08926735449e-13
-9.31921667877e-13
-7.13329504526e-13
-6.68101291635e-12
-6.65488215785e-12
-6.62899807241e-12
-6.60368804704e-12
-7.00826882929e-13
-9.58213486922e-13
-6.84435809349e-13
3.39819451147e-11
-6.58266584614e-18
-3.97392860179e-13
-5.38681974688e-13
-4.37419474145e-13
-5.17951852766e-13
-4.33345412101e-13
-2.61245220135e-13
-3.95424479299e-13
-2.49241643683e-13
3.61216066762e-11
-2.32931931699e-17
-7.03737718128e-14
-4.93605613333e-13
-6.02335251193e-13
-4.72364878555e-13
-5.9211020755e-13
3.33481104999e-14
-4.92554078884e-14
6.59602615617e-14
9.01576995511e-12
-2.25737574725e-17
2.9217714207e-13
-1.14373850456e-12
-1.60153834649e-12
-1.10531386362e-12
-1.5777233352e-12
5.48838646245e-13
4.30224255875e-13
5.99130974793e-13
1.17234721669e-11
8.61561197276e-12
1.12161955438e-11
-2.96913145814e-12
-4.76845648304e-13
8.70483290653e-12
2.981024283e-12
7.75892359513e-13
-9.38523430289e-14
-8.56209985187e-13
-1.42034849073e-12
6.51349365758e-13
1.58211488467e-12
1.36946955604e-13
4.63053037684e-11
-5.98089398578e-17
-1.67662978303e-12
3.42143196294e-12
4.04146089085e-12
3.36830243475e-12
3.78939821235e-12
-5.91026439248e-12
-2.28775563305e-11
-6.04881524333e-12
-2.27365762914e-11
-7.42175929347e-13
-2.57358240101e-12
-1.68097730272e-12
3.85032524567e-11
-4.70820033972e-18
-3.80744141975e-13
2.38531746842e-12
1.87078136514e-12
2.15063555219e-12
1.65485983262e-12
-2.35278667546e-13
-7.5523974029e-13
-5.05213836344e-13
3.57447157179e-11
3.99559230374e-17
-9.40931551511e-14
8.81421599366e-13
5.89453036795e-13
7.44760484691e-13
4.92786962577e-13
-6.65003742788e-14
-2.18058936359e-13
-1.45383927358e-13
3.49008448737e-11
7.02268834376e-17
7.04610200687e-15
2.40146851767e-13
1.66934546506e-13
1.90359064943e-13
1.34927261254e-13
2.87207053699e-14
-3.68609558746e-14
7.5507175973e-15
8.79888871522e-12
8.69365025916e-17
7.80915221046e-14
1.05339596334e-13
1.13953753272e-13
8.98528213112e-14
1.2321047155e-13
9.22596648807e-12
7.896059864e-12
8.26584460456e-12
9.77210128766e-14
6.80589424884e-14
9.12790671369e-14
-4.6082463001e-14
6.36069754551e-14
8.80736953348e-12
1.23993086338e-14
-3.83776352889e-14
3.06963819712e-13
-3.82201804839e-18
5.669717959e-12
-3.28161286623e-13
-6.48516670394e-13
3.15418612209e-11
-9.56733571243e-13
-9.58215941853e-13
-6.65488292661e-12
-6.68100256555e-12
-6.60368902573e-12
-6.62898829813e-12
-7.08927676044e-13
-9.31912142497e-13
-7.13328898643e-13
-6.84438172672e-13
-9.54157955131e-13
-7.00824639563e-13
3.39819161381e-11
-5.38689504257e-13
-3.95429624594e-13
-4.37426516999e-13
-5.17957959997e-13
-4.33351284788e-13
-2.49245774958e-13
-3.97393115239e-13
-2.61246091955e-13
3.61215988144e-11
-4.93613013665e-13
-4.92599155618e-14
-6.02341800075e-13
-4.72371870315e-13
-5.92117513439e-13
6.59540082574e-14
-7.03782802999e-14
3.33432079359e-14
1.17234642696e-11
-1.14374700266e-12
4.30220664307e-13
-1.60154865542e-12
-1.10532887336e-12
-1.57773648636e-12
5.99123795661e-13
2.92163382693e-13
5.48833076178e-13
9.01576645219e-12
1.12161927268e-11
8.61560798234e-12
-4.86632487321e-13
-5.81456739628e-18
1.44110229129e-11
-2.98102260198e-12
7.80103622578e-13
-6.99444273773e-13