/*--------------------------------*- C++ -*----------------------------------*\
  =========                 |
  \\      /  F ield         | OpenFOAM: The Open Source CFD Toolbox
   \\    /   O peration     | Website:  https://openfoam.org
    \\  /    A nd           | Version:  7
     \\/     M anipulation  |
\*---------------------------------------------------------------------------*/
FoamFile
{
    version     2.0;
    format      ascii;
    class       volVectorField;
    location    "9";
    object      U;
}
// * * * * * * * * * * * * * * * * * * * * * * * * * * * * * * * * * * * * * //

dimensions      [0 1 -1 0 0 0 0];

internalField   nonuniform List<vector> 
5218
(
(0.0394615297501 0.00622216384381 0.00618380062398)
(0.0274311495567 0.00438801922729 0.00218805255214)
(0.0184526206213 0.00110869977548 0.000508867245019)
(0.0152957940928 0.000951091453741 -3.08300683221e-05)
(0.0132934918831 0.00247297749233 -0.000477721341721)
(0.00856296784191 0.00652298579611 -0.00101140829843)
(-0.000849966728369 -0.00175089965402 0.000335682139697)
(0.00690972844051 -0.00179111247043 -0.000424614448379)
(0.011627605088 -0.000309688745944 -0.000353439901496)
(0.0135000323973 7.30192679626e-05 -0.000201122679767)
(0.0142104356619 2.210857872e-05 -8.99942830545e-05)
(0.0144964394091 -0.000294231060056 0.000347380614768)
(0.0388471982483 0.00124833573973 0.00607280892374)
(0.0296080831987 0.00320552686299 0.0023884309483)
(0.0246455218073 0.00161250490875 0.000683280080444)
(0.0235903402494 0.00181422971747 6.89083484569e-05)
(0.0261606389671 0.0053628941689 -0.000620384070084)
(0.0358132461272 0.0200353603121 -0.00293689121124)
(0.0149713873352 0.0217921681976 -0.000745533122465)
(0.0215840324169 -0.0222653028354 0.00339218585437)
(0.0217224138062 -0.00671007315516 8.7635885296e-05)
(0.0202053948904 -0.00105477944526 -3.89902612968e-05)
(0.0202200064391 0.000140986785811 -3.68473810844e-05)
(0.0207976489569 0.000137740035636 -8.14790104311e-05)
(0.0211402604059 -2.64003489198e-05 0.000385849536686)
(0.0387679432943 -0.000148589745693 0.00607707460682)
(0.0292904858051 -0.00111039462164 0.00232509732988)
(0.0253806119669 -0.000599308436772 0.000636875814314)
(0.0253896583605 -0.000728886516336 2.04676117063e-05)
(0.0313210282349 -0.00243339672579 -0.000771457178163)
(0.056686518546 -0.0107087044927 -0.00230637337338)
(0.163832156466 -0.0700983249728 -0.00562916434074)
(0.306520473815 -0.0072789261094 0.000630037643264)
(0.271692869202 0.0126319335875 0.00939683402173)
(0.0675147172311 0.0250187580787 0.00340620688866)
(0.0320965713225 0.00418436381483 0.000469776985769)
(0.0226535045783 0.0005464416326 0.000191705845718)
(0.0213032198502 -6.17177058335e-05 6.70843663488e-05)
(0.0218078388867 -7.12263286152e-05 -4.39147606517e-05)
(0.0221870397202 -2.17980658296e-05 0.000451339368201)
(0.0389201291199 -0.00184757284823 0.00604986834532)
(0.0296692117815 -0.00462441450591 0.00238668073721)
(0.0227497846126 -0.0019388097639 0.000625001047465)
(0.020286326947 -0.00190569868924 -7.86758040763e-06)
(0.0198361192376 -0.00492341667483 -0.000589965897555)
(0.0196768062701 -0.0142440936338 -0.00164200696932)
(0.00418908367368 -0.0082732855413 -0.000194299623981)
(0.00359234757643 0.00754463624628 0.00104201165573)
(0.0129248848211 0.00455686190019 -0.000356586760823)
(0.0163227840509 0.000903136338469 -0.000308332421458)
(0.0177172247186 -9.41030084573e-05 -0.000186912132508)
(0.0184477067701 -8.45314681606e-05 -0.00011109784131)
(0.0187135023344 0.000144943864664 0.000426480381644)
(0.0390196753428 -0.00891500850918 0.00627038708165)
(0.0130388750605 -0.00189597024416 0.000472288950525)
(0.00690549986947 -0.000269536071412 9.36922587402e-05)
(0.00546171708926 -0.000218433770462 -2.27437007043e-05)
(0.00463862226199 -0.000502094830591 -0.000158255121507)
(0.00246381281936 -0.00139811827635 -0.000451609789829)
(-0.00101019562519 0.000242842522893 8.8650625499e-05)
(0.00165867279601 0.000242519740706 -4.42859223813e-05)
(0.00387351644032 -7.86661957059e-05 -8.83796919728e-05)
(0.00467970043958 -0.000119495129639 -6.20930012091e-05)
(0.00494477693789 -8.90279488706e-05 -3.02227171771e-05)
(0.00511576698651 1.84189432479e-05 6.72319001471e-05)
(0.0530949091727 0.0147882019593 0.00817857104308)
(0.0553544464512 0.00914023896194 0.00857865823892)
(0.0490472522717 0.00341067146626 0.00321250951922)
(0.0446417444744 0.00252046045425 0.000146460935872)
(0.0385481784709 0.00537246957489 -0.00242264510067)
(0.0226667166966 0.0119384237178 -0.00509273817831)
(0.00409477262555 -0.00599472770714 0.00278771541894)
(0.027536237067 -0.00924960234571 -0.00101229034691)
(0.0392392653036 -0.00349070093267 -0.00147823236666)
(0.0430014887292 -0.000771269054973 -0.00103306491199)
(0.0441850651456 -0.000102193523823 -0.000646049164714)
(0.0455472602074 -0.000400624122189 -0.000199798458778)
(0.0525850948184 0.00519383329829 0.00867558227354)
(0.0748809620266 0.0057110917532 0.00883686775423)
(0.0826487036454 0.00383068570731 0.0042744514009)
(0.0869616499518 0.00426054509046 0.000491566583695)
(0.094400375407 0.0122918070827 -0.00459515442413)
(0.0832565678503 0.0350348746827 -0.00969801338364)
(0.0400932802794 0.0478529333256 -0.00946093622425)
(0.120009558909 -0.0618008192263 0.0165955045812)
(0.100124145852 -0.0264423056132 0.00706172479931)
(0.0899824524022 -0.00891600656662 0.00253861139078)
(0.0850538745195 -0.00255553496592 0.000493857843672)
(0.0856694809367 -0.00116944074267 -0.000742594853285)
(0.0752763771792 -0.000621108409911 -0.000289988166414)
(0.0522825085713 -0.00161265489871 0.00860995470583)
(0.0748809454128 -0.00571106180304 0.00883686327681)
(0.0826486989657 -0.00383075822087 0.00427447627474)
(0.0869616379981 -0.00426058987943 0.000491582700861)
(0.0944003164036 -0.012291817937 -0.00459512577092)
(0.121700052428 -0.0175558848186 -0.00972957866763)
(0.234531158143 -0.10620224541 -0.0168262094859)
(0.532900142896 -0.0253241174789 -0.000324444274202)
(0.499696615484 0.0190030188868 0.0119831352457)
(0.120009666733 0.0618004887222 0.0165955766293)
(0.100124196619 0.0264420278338 0.00706178286042)
(0.0899824584176 0.00891595580439 0.00253862685598)
(0.0850538652106 0.00255568565046 0.000493828743214)
(0.0856694514347 0.00116965508865 -0.000742592662737)
(0.0800854105766 0.000346681136379 0.000121450017189)
(0.0529064828596 -0.00924023011437 0.00865162563753)
(0.0651502625874 -0.0111639277032 0.00985266634475)
(0.0647440936048 -0.00577067997231 0.00423106160571)
(0.0626537116865 -0.00468928906584 0.000502000645603)
(0.0593626059838 -0.00981321516782 -0.0029787342136)
(0.0491885307483 -0.0251798223399 -0.0076699208925)
(0.0130186395758 -0.0198770480725 -0.00494012817178)
(0.0241843991046 0.0189712748601 0.0068665127929)
(0.0514292652107 0.0190645441662 0.00097188136992)
(0.0590324070498 0.00684957811237 -0.000492288285445)
(0.0605782912966 0.00133308514855 -0.000652574623931)
(0.0614997950394 8.56251277294e-05 -0.000637448515893)
(0.0633405909781 0.00108596103999 -0.000287211748449)
(0.0499839627407 -0.0133726562778 0.00442254131966)
(0.0278226089125 -0.00135589986017 0.00484722889138)
(0.0213216600328 -0.000462413611011 0.00126854978892)
(0.0184985478387 -0.000307773693747 -0.000122236589176)
(0.0149763197433 -0.000696122626215 -0.00128545854916)
(0.010558755869 -0.00433342093047 -0.00263131778283)
(-0.00116812034868 0.00129087960218 0.00108036719946)
(0.00896883730048 0.000978413758182 -0.00113796042439)
(0.0157144358641 0.000261938568719 -0.00109368184549)
(0.0179060273135 1.92081514384e-05 -0.000683747488607)
(0.0182661660848 -5.98292440987e-05 -0.000448792170461)
(0.024258201388 -0.000756962022561 -0.000100963683206)
(0.052263002842 0.0145504832109 0.0014049493946)
(0.0563855806451 0.0089699720054 0.00211265682157)
(0.0549078705988 0.00351420093171 0.000956444390993)
(0.0521986461896 0.00259448377066 3.37457653386e-05)
(0.0448565987093 0.00542312325958 -0.00077031351555)
(0.0247044821487 0.0115949701436 -0.00146961709373)
(0.00433847214153 -0.00619084132548 0.00082366254687)
(0.0338221548448 -0.0115850326352 2.39945383113e-05)
(0.0486823621728 -0.00490281042685 -0.000281137129992)
(0.0531520454206 -0.00128754957641 -0.000259339362072)
(0.0542582166047 -0.000150329927746 -0.000194540839493)
(0.0553829606674 -0.000284064346575 -0.000128574739696)
(0.0517266514145 0.00514956004016 0.00157541544628)
(0.0777269334008 0.00574785914593 0.000121156254076)
(0.0898551243012 0.00401414403627 5.33924088155e-05)
(0.0960911552261 0.00431507789136 -1.35960138711e-05)
(0.102398339463 0.012375401552 -5.93555973944e-05)
(0.090534156002 0.0359050888263 -0.00244178190938)
(0.0408091131021 0.0482052223357 -0.00284088546466)
(0.120830077287 -0.063629187319 0.000172290012666)
(0.109209710758 -0.0293145948744 6.9898125578e-05)
(0.102455265914 -0.0107492080651 4.88929278227e-05)
(0.0978059867378 -0.00336044778678 3.22925524774e-05)
(0.0984268090613 -0.00148791221438 5.85172112062e-06)
(0.0937220754578 -0.000292381427905 -2.81683489375e-05)
(0.0513878750191 -0.00159642522017 0.00156663921109)
(0.0777269104288 -0.00574784472203 0.000121159405048)
(0.0898551364832 -0.0040142266405 5.33931383122e-05)
(0.0960911631909 -0.00431511179079 -1.3602675645e-05)
(0.102398281581 -0.0123753870292 -5.9358775188e-05)
(0.131299983749 -0.0179950942549 -0.00245371689297)
(0.238144062608 -0.107396873201 -0.0036970193591)
(0.540219329987 -0.0261857719716 -0.000423666256908)
(0.503578384359 0.0188744994896 0.00173961318607)
(0.120830176762 0.0636289107143 0.000172307899614)
(0.109209853468 0.0293144833702 6.99261365999e-05)
(0.102455342694 0.0107492943576 4.89215824573e-05)
(0.0978060195951 0.00336063823037 3.23269157775e-05)
(0.0984267976985 0.00148814907532 5.88375775274e-06)
(0.0999496732187 0.000291580222409 5.6456616733e-05)
(0.0521048666368 -0.00913058018642 0.00154958149792)
(0.0678147325332 -0.0111529374676 0.00253926614034)
(0.0736692808938 -0.00611510148953 0.00128872234063)
(0.0741259908034 -0.00498690715499 0.000154808929684)
(0.0696126294566 -0.0102296186866 -0.000903081603106)
(0.0540104026544 -0.0253306780832 -0.00210662899079)
(0.0130941777191 -0.0197323086695 -0.00153344394334)
(0.0259872298365 0.0197048048108 0.00168700291068)
(0.0618593148596 0.0231208495481 0.000620711999326)
(0.0733891471047 0.00950925784219 3.09153984275e-05)
(0.0756517965135 0.00238574669813 -0.000126319768238)
(0.0764836635195 0.000256787723157 -0.00016033326474)
(0.0784188191664 0.000729594754873 -0.000144639398057)
(0.0496467661219 -0.0131220868708 0.000822289480202)
(0.0272740813993 -0.00119644779412 0.00101662311701)
(0.0233484298872 -0.000482526305661 0.000366861474514)
(0.0211369115686 -0.000296639730761 -4.77808778994e-05)
(0.0169398280657 -0.000644804243424 -0.000400732367731)
(0.0115671599451 -0.00450927317812 -0.00119350942997)
(-0.00172055950106 0.00133519704131 0.000550375181363)
(0.0108926282409 0.00132558994951 -0.000174242241373)
(0.0191294729701 0.000451946826647 -0.000253560620129)
(0.0216767731659 8.10377069064e-05 -0.00018420811522)
(0.0219113901185 -7.0727455205e-05 -0.000125641367634)
(0.0299110496317 -0.00134526567406 -0.000107995723893)
(0.0525345574993 0.0145168433927 -0.00422612538422)
(0.0564126977931 0.00912641484226 -0.00571436730171)
(0.0535272824761 0.00359825011965 -0.00255763876687)
(0.0501795690132 0.00266563187576 -0.000255532965984)
(0.0431680217481 0.00553941824543 0.00177850847072)
(0.0242732917057 0.0118781012548 0.00373588329998)
(0.0043994890576 -0.00624342601907 -0.00200132946281)
(0.0321489256532 -0.0110908805638 0.000192945031246)
(0.0458766590691 -0.00454424989172 0.000922280393063)
(0.0500453793157 -0.00114655755516 0.000758882338852)
(0.0511830084528 -0.00013081214264 0.00046708923531)
(0.0524064049155 -0.00024040038778 0.000145314051261)
(0.0519810904812 0.00513376928071 -0.00472359924612)
(0.0747525013398 0.00566285824582 -0.00861995633606)
(0.0826189323001 0.0038376754555 -0.00419944070933)
(0.0870104991812 0.0042814658012 -0.000529659759433)
(0.0944688420217 0.0123144021209 0.00448780564307)
(0.0880822659206 0.0360070280484 0.00686715013911)
(0.0406399904755 0.04829824788 0.00471761771958)
(0.119993897514 -0.0620806803198 -0.0165289621754)
(0.100123107026 -0.0264695487279 -0.00714329417372)
(0.0900569515907 -0.00891547935776 -0.00254568104778)
(0.0851400168971 -0.00255767465989 -0.000476234738279)
(0.0857665211369 -0.00116954630391 0.000733673260239)
(0.0873865999838 -0.000190177887413 0.000368850851422)
(0.0516440563248 -0.00159348087185 -0.00469637033029)
(0.0747524757772 -0.00566284101891 -0.00861995967404)
(0.0826189200655 -0.00383775156727 -0.00419947943003)
(0.0870105049556 -0.00428151827451 -0.000529708191441)
(0.0944688009262 -0.0123144518055 0.00448775136995)
(0.128181316814 -0.0180261768147 0.00693944062818)
(0.237264610753 -0.10718697373 0.0105747742132)
(0.539370082816 -0.0261073134544 0.000617138573273)
(0.503558175258 0.018889910254 -0.00327750132432)
(0.119993947164 0.0620804529714 -0.0165290415222)
(0.100123174506 0.0264695357017 -0.00714327053551)
(0.0900570468345 0.00891564113297 -0.00254563787815)
(0.085140112191 0.00255793090892 -0.000476184423763)
(0.085766598875 0.00116987164943 0.00073370929203)
(0.0930747496201 0.000217105450779 0.000110977141486)
(0.0523825213765 -0.00910621591818 -0.00466208934668)
(0.0674636906922 -0.0110860573105 -0.00679673753921)
(0.0713666972054 -0.00599852561623 -0.00339600399989)
(0.0708786710993 -0.00500468081659 -0.000579580994541)
(0.0667146151832 -0.0104375828272 0.00216122602122)
(0.0527946431384 -0.0256942925543 0.00547868641132)
(0.0130930278496 -0.0198369746983 0.00246658444847)
(0.0261042546084 0.0199907481261 -0.00513173298563)
(0.0590894342178 0.0224714363163 -0.00173078049399)
(0.0689572004761 0.00889179349589 -2.39513031504e-05)
(0.0708418906237 0.00208827020952 0.000379205846365)
(0.0717030990817 0.000167376784658 0.000433418246224)
(0.0736488706445 0.000512764736508 0.000191099854115)
(0.0496871488538 -0.013048007052 -0.00138280925848)
(0.0276425971925 -0.00128675762447 -0.00310627393845)
(0.0230485157107 -0.000527081799823 -0.0011627098)
(0.0205361125858 -0.000324332211149 -2.96443200126e-05)
(0.0164845851172 -0.000686069881952 0.000882555325571)
(0.0114814291252 -0.00463326885571 0.00182274305145)
(-0.00165463958639 0.00137226921338 -0.000722133842496)
(0.0103789116184 0.00127954894832 0.000664970425442)
(0.0181270467655 0.000428057542189 0.000805824322846)
(0.0205614367404 7.77390357322e-05 0.000535269168554)
(0.0208503155255 -6.54347229882e-05 0.000302807279434)
(0.029167731737 -0.00132180719 0.000112353374048)
(0.0540896375413 0.0142749796297 -0.0138241178027)
(0.0484364205105 0.00824902756875 -0.00835078700829)
(0.0390962625077 0.00301251853804 -0.0025938599237)
(0.0342466425737 0.00224479117006 -0.00013537660159)
(0.0296799316683 0.00487318623173 0.00185390505225)
(0.0183925096496 0.0112204334363 0.00427656760949)
(0.00206188114231 -0.00491089213271 -0.00192922214075)
(0.019198957465 -0.00616756826141 0.00132219867696)
(0.0282238872239 -0.00196502887478 0.00139145673916)
(0.0314498168789 -0.000269860005285 0.000861657270774)
(0.0326443062146 3.64722459467e-05 0.000454158139748)
(0.0337336405522 3.57444017883e-05 -2.68608457047e-05)
(0.052828059187 0.00456001481206 -0.0137971612109)
(0.0568062616513 0.00614413420959 -0.0100738723088)
(0.0552526839348 0.00357948177363 -0.00404703142146)
(0.054907198691 0.0035859838688 -0.00105941097861)
(0.0583887698275 0.00937745488622 0.00162881354515)
(0.068678492002 0.0320807260485 0.00963099332447)
(0.0379629760581 0.0469068421261 0.0101227682735)
(0.0585589471771 -0.0449042683006 -0.0138475458693)
(0.0587265329639 -0.0188794964233 -0.00184530662195)
(0.0524588427539 -0.00488178228423 -0.000400690892042)
(0.0504297119363 -0.00068999643716 -0.000199551976279)
(0.051008242788 -4.04211279452e-05 2.73325944797e-05)
(0.053004326856 -0.000131791060695 0.000445807346907)
(0.0525323695381 -0.0014100071943 -0.0137835506906)
(0.056837375463 -0.00226739294533 -0.0099304911354)
(0.0572357616331 -0.00145472806316 -0.00390615714163)
(0.0588147365361 -0.00152330232311 -0.000725730382404)
(0.0673463216652 -0.00433298715977 0.00311849420282)
(0.101345551868 -0.0164252610572 0.00973151083987)
(0.222110165061 -0.100821336712 0.020784897592)
(0.526891862084 -0.0245115067735 -0.000458223000448)
(0.493002359992 0.0189517069988 -0.017122979396)
(0.149671835281 0.0489933382333 -0.0231200659465)
(0.0811825699955 0.0118048676191 -0.0075886219408)
(0.0588521953517 0.00272030650338 -0.0021702350218)
(0.0536333514394 0.000438490023565 -0.000775019155788)
(0.0538510733471 5.95276850967e-05 -0.000211159853921)
(0.0561466007673 1.27525471403e-05 0.000138909724851)
(0.0533699428081 -0.00839627427912 -0.0138004668697)
(0.055356618908 -0.00867496323273 -0.00925983521911)
(0.0501319731035 -0.00433432327805 -0.00322059481978)
(0.0469486637047 -0.00385789866374 -0.000335220636606)
(0.0450272351981 -0.00886601751294 0.0022480012401)
(0.0401245473179 -0.0236591651927 0.00683686376205)
(0.0125409497159 -0.0197561423463 0.0051183575976)
(0.0164242387279 0.0171528036592 -0.00527225935424)
(0.0361806085824 0.013301480843 0.000460892032812)
(0.0416445899158 0.00394949205188 0.000960500489966)
(0.0433083172298 0.00052696172271 0.000697416242123)
(0.0443843691102 1.04742428475e-06 0.00048264124151)
(0.0457509567359 0.000274635099659 9.41868032076e-05)
(0.0502625976159 -0.0128445621147 -0.00624671105437)
(0.0271326214527 -0.00207387391147 -0.00508734384196)
(0.0182761482868 -0.000543172278334 -0.00115898463122)
(0.0149998860651 -0.000325404281945 -6.52502450277e-06)
(0.012106137642 -0.000690417307468 0.000846247570943)
(0.00945493702385 -0.00448298558879 0.00228548992688)
(-0.0014498242252 0.00127411626255 -0.000805558585481)
(0.00635384997183 0.000613475714848 0.00123379537592)
(0.0117736060497 0.000112483415321 0.0010034084642)
(0.0137283337589 -1.99400161876e-05 0.000552182351085)
(0.0142726665728 -3.12239100034e-05 0.000303705534988)
(0.0146219681228 -0.000389686511794 0.000279108693969)
(0.0502625889016 0.0128445374812 -0.00624670298555)
(0.0384667396732 0.00467313568307 -0.00833056776721)
(0.0390021620151 0.00875490248507 -0.00628675297368)
(0.0171937185237 0.00296119352022 -0.000822798936152)
(0.0271326042748 0.00207384936646 -0.00508732302157)
(0.0215141691163 0.0010323923557 -0.00244392542919)
(0.012927015109 0.00179796821581 -0.000419561687173)
(0.00774940047923 0.000246935742205 -0.000101645176351)
(0.0182761704532 0.000543166621685 -0.00115897089197)
(0.0163326266034 0.00034619352408 -0.000449794692394)
(0.00694807193139 0.000331175801078 -5.91624235839e-05)
(0.005723358214 9.5715882824e-05 2.50566156056e-05)
(0.0149999078759 0.000325397199052 -6.50353856867e-06)
(0.0137533167949 0.000427909454683 0.000400058260108)
(0.00545864051542 0.000273728921788 2.91200959578e-05)
(0.00485639021187 0.00030188578158 0.000136313193894)
(0.0121061842924 0.000690454521796 0.000846250285893)
(0.00956713349111 0.00112362710311 0.00140862053565)
(0.00460482341952 0.00059026945763 0.000157571387742)
(0.0033550682988 0.00104028240287 0.000365727063574)
(0.00945490892172 0.00448304947526 0.00228548563594)
(0.00246814176953 0.00149678940407 0.000415799430958)
(-0.0016222137728 0.000829074354903 -0.00114251567083)
(-0.00100556973224 0.000423513839676 -0.000141341520273)
(-0.00144971284425 -0.00127388531408 -0.000805775533949)
(0.00191509419269 -0.00072520499964 0.00101711695606)
(-0.00118587333233 -0.000260106793193 -7.21921391622e-05)
(0.0007598953449 -0.000355299357926 3.9967013114e-05)
(0.00635384687666 -0.000613369712825 0.00123364770821)
(0.00961510116429 -0.000359327795611 0.00123573910936)
(0.0016254809006 -0.000272504331617 5.32143449772e-05)
(0.00341379664061 -8.30998230153e-05 0.000109579840644)
(0.0117735781839 -0.000112428807807 0.00100333625122)
(0.0130306873337 -1.63822733043e-05 0.000777930462754)
(0.00382169831927 7.38390434181e-05 7.74224183864e-05)
(0.00449687605762 -3.56137287335e-06 8.81940530312e-05)
(0.0137283357403 1.99483291452e-05 0.000552198127486)
(0.0140917524408 1.67539658743e-05 0.000397676627068)
(0.00463584281767 0.000132823096027 5.33498719364e-05)
(0.00484009835195 -4.19418499257e-05 5.53623004985e-05)
(0.0142727230983 3.11969734511e-05 0.000303717672884)
(0.0143581440144 0.000122251385748 0.00033534264188)
(0.00488957192529 0.00010853072412 2.47381734788e-05)
(0.0050023762876 -8.78230499017e-05 1.11780849505e-05)
(0.0146220344193 0.000389686970878 0.000279095514645)
(0.0213634881145 6.83808320678e-06 5.07372753314e-05)
(0.00508786584912 2.82793085465e-05 -5.18269422344e-05)
(0.0053886511518 -8.49804820446e-05 -0.000100620147211)
(0.00190299660073 0.00265993976965 0.0014948216994)
(0.0401245772334 0.0236592107569 0.00683684715284)
(0.0299363639844 0.0314172772886 0.00844861881491)
(0.00859828252198 0.00655023439826 0.000993476284964)
(0.000785416924312 0.00101958931826 7.53484802948e-05)
(0.019727235756 0.0142837086452 0.00163592329753)
(0.0101714632892 0.0123239487827 0.00224259403641)
(0.012540969245 0.0197561554507 0.00511833066509)
(0.00419174113056 0.008279337148 0.00019391793666)
(-0.00139633052087 0.00213041587385 -0.00244168730997)
(-0.00061827897653 -0.000209949202344 -0.0067263386529)
(-0.0010099260743 0.000563824439095 -0.000276465729211)
(-0.00102723342523 -0.00268919934219 -0.000258578520888)
(0.222110149646 0.100821347437 0.0207848812265)
(0.517531064268 0.0696549726323 0.00571444722491)
(0.014977386596 0.021801310061 0.000743890485292)
(0.163832862532 0.0701023669218 0.00562512063331)
(0.303378631113 0.0290351762288 -0.000369835533066)
(0.526891833418 0.0245115100871 -0.00045830452753)
(0.534289980119 -0.000102553341504 -0.0117646215034)
(0.306489283458 0.00727786691105 -0.000628724908074)
(0.29358841883 -0.00124124114526 -0.00308489089513)
(0.0201626651491 -0.0275044914477 -0.0174582386055)
(0.49300226399 -0.0189517202483 -0.0171229311492)
(0.226751067729 -0.0897432192378 -0.0352925446952)
(0.000982721293995 -0.0102876954647 -0.00147322711527)
(0.271777644708 -0.0126373148866 -0.00933895751141)
(0.119453553885 -0.0573724358824 -0.00803201236161)
(0.517531049474 -0.069654908107 0.00571452601423)
(0.0379629394579 -0.0469068179713 0.0101228055963)
(0.163832877287 -0.0701023939276 0.00562514571901)
(0.303378632431 -0.0290351553303 -0.00036984417082)
(0.0149773719253 -0.0218013016171 0.000743909940993)
(0.534289914188 0.000102501252691 -0.0117646454433)
(0.306489271768 -0.00727787501738 -0.000628748450762)
(0.293588411061 0.00124121801756 -0.00308489198602)
(0.226751063635 0.0897431291646 -0.0352925502816)
(0.0201627317831 0.0275047603323 -0.0174581446315)
(0.271777650635 0.0126373058333 -0.00933894085245)
(0.11945357313 0.0573723317167 -0.00803200455016)
(0.000982764142771 0.0102878019122 -0.00147318391875)
(0.029936347462 -0.0314172197653 0.0084486431037)
(0.0183924559918 -0.0112204384854 0.00427658745718)
(0.00190299339456 -0.00265993474335 0.00149480400087)
(0.0197272403935 -0.0142837067018 0.00163593236567)
(0.0101714611859 -0.012323927324 0.00224261637189)
(0.00859823831973 -0.00655021703492 0.00099349764742)
(0.000785401982447 -0.00101958408459 7.53603627202e-05)
(0.00419174233857 -0.00827934048462 0.000193926483467)
(-0.000618285088813 0.000210045173378 -0.00672630087914)
(-0.00139640924986 -0.00213036019415 -0.0024416472572)
(-0.00102726208736 0.00268929132162 -0.000258509134896)
(-0.00100992963487 -0.0005637642809 -0.000276421604918)
(0.0384667444561 -0.00467315770345 -0.0083306069825)
(0.0390021640858 -0.00875490650324 -0.00628675449422)
(0.0171937457612 -0.00296121485465 -0.000822812548023)
(0.0215141742342 -0.00103239037349 -0.00244394802684)
(0.0129270358896 -0.00179797940775 -0.000419573112598)
(0.00774942389281 -0.000246944490738 -0.000101656748102)
(0.0163326161649 -0.000346197360382 -0.000449820836376)
(0.00694810087579 -0.000331162961034 -5.91760600475e-05)
(0.00572337794469 -9.57300537521e-05 2.50479272162e-05)
(0.0137533151849 -0.00042789588016 0.000400035920366)
(0.00545865397328 -0.000273740246489 2.91161733852e-05)
(0.00485641864215 -0.000301888604013 0.000136314420884)
(0.00956708527084 -0.00112359295933 0.00140862319505)
(0.00460483731068 -0.000590262212463 0.000157578210611)
(0.00335507706234 -0.00104026120462 0.000365727532458)
(0.0024681315485 -0.00149679547607 0.000415789542057)
(-0.00162224391598 -0.000828896415424 -0.00114231407263)
(-0.00100567519517 -0.000423403623427 -0.00014126869582)
(0.00191519066053 0.000725341131648 0.00101722350751)
(-0.00118591669965 0.000260071703371 -7.22013050199e-05)
(0.000759883043121 0.0003554035477 3.99844080189e-05)
(0.00961520103225 0.000359423120986 0.00123584004857)
(0.00162547280586 0.000272610765832 5.32740076452e-05)
(0.00341381953266 8.31581615985e-05 0.000109626042933)
(0.0130307934881 1.6442680101e-05 0.000777946673868)
(0.0038217210168 -7.38102668992e-05 7.74703957509e-05)
(0.00449686262339 3.5934131051e-06 8.81953086873e-05)
(0.0140917574272 -1.67576343631e-05 0.000397683656309)
(0.00463582255729 -0.00013288115298 5.33693810576e-05)
(0.00484007888161 4.19476551631e-05 5.53425662283e-05)
(0.0143580857486 -0.000122307332847 0.000335332159079)
(0.00488955100884 -0.000108576992395 2.47390895218e-05)
(0.00500237142402 8.7815550335e-05 1.11689444968e-05)
(0.0213633805008 -6.85259124111e-06 5.07250079743e-05)
(0.00508783769573 -2.83122332267e-05 -5.18213775633e-05)
(0.00538858482268 8.49836419665e-05 -0.000100620971236)
(0.0390196703064 0.00891501766252 0.00627038344338)
(0.0173900032846 0.00320551243704 0.000869010707424)
(0.0502300275279 0.01334517993 0.00644908573607)
(0.041253612926 0.00703963056995 0.00833017061539)
(0.0130388634723 0.00189596655449 0.000472279033673)
(0.00771167260314 0.000191379134283 0.000165049625698)
(0.0361531206789 0.00472019756512 0.00692690001827)
(0.0267809584817 0.00124054755434 0.00253956663934)
(0.00690550381762 0.000269527678123 9.36745546593e-05)
(0.00570861915786 3.92823411058e-05 1.68491892778e-06)
(0.0251155666179 0.00104594318147 0.00191705897548)
(0.0220343282938 0.000496831086961 0.00031245098587)
(0.00546171081555 0.00021841915492 -2.27532278746e-05)
(0.00488820527181 0.000222771256628 -0.000126275688507)
(0.0212650034031 0.00072285850994 0.000161984853002)
(0.0190519291626 0.000991432495865 -0.000863359902725)
(0.00463860630993 0.000502097703028 -0.000158238780025)
(0.00334315689628 0.000931779070684 -0.000405790059202)
(0.0179759762638 0.0015637139838 -0.00104805439504)
(0.0128121938535 0.00286796474428 -0.00205133410801)
(0.00246381075878 0.00139815893814 -0.000451584068453)
(0.00962193206602 0.00395870158567 -0.00224699270057)
(-0.000870083511476 0.000368264006817 0.00012826906749)
(-0.0014901941603 0.000611673389819 0.00133936811051)
(-0.00101021842775 -0.000242847517383 8.86938998891e-05)
(0.000802426733014 -0.00032600349049 -2.88287424181e-05)
(-0.0011231176246 -0.00124223583208 0.000905727272586)
(0.00602558952212 -0.00234048746938 -0.0010672459759)
(0.00165864405447 -0.000242513137911 -4.42490674796e-05)
(0.00346715310284 -7.15064922047e-05 -0.000113214359415)
(0.00919481799081 -0.00197028408726 -0.00125651336213)
(0.0154303695122 -0.00100110784633 -0.00138992934457)
(0.00387348096888 7.8685483607e-05 -8.83453086518e-05)
(0.00454339520167 -1.77144839761e-05 -8.16871676335e-05)
(0.0168180898441 -0.00045568610539 -0.001110224728)
(0.0190138873088 -0.000156197752044 -0.000942356340948)
(0.00467972129373 0.000119508493861 -6.20905853125e-05)
(0.00488889034713 -6.32671037563e-05 -4.36392904564e-05)
(0.0194136817443 0.000121553718428 -0.000610875466785)
(0.0199601018951 -1.91176240368e-05 -0.000580823535572)
(0.00494483196262 8.90626605995e-05 -3.0228309027e-05)
(0.00506424340934 -0.000122512043195 1.97483579452e-05)
(0.0200713665322 0.00018876945892 -0.000322183910234)
(0.0205437537303 6.30782697829e-05 -0.000260421808816)
(0.00511584897413 -1.84231276594e-05 6.72421657509e-05)
(0.00537464054214 -0.00013962761399 9.02065716533e-05)
(0.0210102134443 0.000375649537494 5.38827013395e-05)
(0.021503038488 -0.00020846705473 -8.12927870293e-05)
(0.000781512357275 0.00101522197086 -7.66187948016e-05)
(0.0196768454967 0.0142440982647 -0.00164199261757)
(0.0101605221428 0.0123099774061 -0.00224254995619)
(0.0183437177888 0.0111358262289 -0.0043152735808)
(0.00189746468177 0.00264772058044 -0.00150335317201)
(0.0400309755412 0.0235909643241 -0.0068967705342)
(0.0298990443783 0.0313614953561 -0.00849923920989)
(0.00418907935117 0.00827327201375 -0.000194276425253)
(0.0125295206644 0.0197330832066 -0.00513722891397)
(-0.000851384830557 0.000467629108307 0.000240252892492)
(-0.000606833081798 -0.00273401366973 0.000440894548246)
(-0.000786911449929 0.000476681686088 0.00258384120756)
(0.00769725800803 -0.0116591866507 0.0105734192697)
(0.163832175342 0.0700983283115 -0.00562914396638)
(0.303407527332 0.0290383956784 0.000369235855433)
(0.0379422567376 0.0468730188342 -0.0101544793188)
(0.222097977861 0.100809296604 -0.0208322719815)
(0.517573466374 0.0696602699718 -0.00574793171072)
(0.306520461946 0.00727891888506 0.000630018701435)
(0.293557046959 -0.00124341850101 0.00311440604969)
(0.526951069591 0.0245150740959 0.000430792035513)
(0.534460054139 -9.29401693646e-05 0.0116990025261)
(0.00139457186747 -0.0103579833443 0.0016009149264)
(0.271692879895 -0.0126319410448 0.00939682134223)
(0.119499689742 -0.0566142731888 0.00825717367625)
(0.0228589925737 -0.0234451778742 0.0201911662433)
(0.493381479257 -0.0189794522026 0.0170015602479)
(0.228371113444 -0.0890444533549 0.0362391638087)
(0.303407547715 -0.0290383970174 0.000369232202187)
(0.0149713915506 -0.0217921534896 -0.000745540165202)
(0.222097963672 -0.100809227722 -0.0208323016265)
(0.517573481669 -0.0696602821815 -0.00574795434966)
(0.0379422429138 -0.0468729835891 -0.0101545300819)
(0.293557085818 0.00124338583442 0.00311442533169)
(0.526951112553 -0.0245150813998 0.000430780592448)
(0.534460033845 9.29359915073e-05 0.0116989702227)
(0.11949974831 0.0566139807745 0.00825719306085)
(0.00139466281491 0.0103579057632 0.00160094961582)
(0.493381527265 0.0189794000637 0.0170015331665)