/*--------------------------------*- C++ -*----------------------------------*\
  =========                 |
  \\      /  F ield         | OpenFOAM: The Open Source CFD Toolbox
   \\    /   O peration     | Website:  https://openfoam.org
    \\  /    A nd           | Version:  7
     \\/     M anipulation  |
\*---------------------------------------------------------------------------*/
FoamFile
{
    version     2.0;
    format      ascii;
    class       volScalarField;
    location    "5";
    object      p;
}
// * * * * * * * * * * * * * * * * * * * * * * * * * * * * * * * * * * * * * //

dimensions      [0 2 -2 0 0 0 0];

internalField   nonuniform List<scalar> 
5218
(
1.65919838067
1.6316798619
1.62859754504
1.62838835496
1.62908269568
1.63087429916
-0.0257218581227
-0.0150214049051
-0.00785563077926
-0.00437141730619
-0.00285378511538
-0.00178319304841
1.65279218427
1.6308949304
1.6283505611
1.62785854584
1.62779851881
1.62803274368
1.62606411073
-0.0279572935977
-0.0154736247943
-0.00733755771712
-0.00389267215594
-0.00270475312358
-0.00184698374189
1.65192836203
1.63076877298
1.62833207785
1.62768380044
1.62702929635
1.62353863406
1.58701902827
1.02219004414
0.182885140988
-0.0217000247115
-0.0156586874412
-0.00734492741178
-0.0038017407831
-0.00268260966196
-0.00188431210268
1.65354867581
1.63128364446
1.62850253453
1.6281967515
1.6286470892
1.62996396719
1.63060996092
-0.027552049901
-0.0151400417799
-0.00752874261581
-0.00411769745761
-0.00278804352512
-0.00185421243312
1.66500055263
1.63255225944
1.62847823398
1.62822572213
1.62868810023
1.63016148988
-0.0255273663179
-0.0158167353933
-0.00870236854762
-0.00485246777396
-0.00302773271496
-0.0018331117013
1.63516787666
1.63011493374
1.62852070281
1.628475439
1.62905312967
1.631739337
-0.0282700427322
-0.0141886414403
-0.00663480448834
-0.00355949266268
-0.00264927518171
-0.0014857455507
1.63178276289
1.62970518631
1.62847956011
1.6278138
1.62722973201
1.63012635631
1.63241689846
-0.0220863654175
-0.0137757358539
-0.00595556022878
-0.00224015607365
-0.0018202894226
-0.00112095612843
1.6313956897
1.62970514163
1.62847949866
1.62781373723
1.62722970951
1.62527348005
1.59550178208
1.01121189233
0.130167909232
-0.0220861763586
-0.0137755261495
-0.00595541301112
-0.00224006649878
-0.00182023661346
-0.00144141369139
1.63304464225
1.63032928098
1.62867261555
1.6283360754
1.6285506774
1.6311452708
1.63878392175
-0.029350653023
-0.0149798657962
-0.00634439791993
-0.00282833279897
-0.00227586732337
-0.00149015809007
1.64233941614
1.6296170857
1.62828550571
1.62833377945
1.62873714931
1.6300805818
-0.0273029687453
-0.0132609403379
-0.00713352132543
-0.00413526792967
-0.00286925506103
-0.00228297528978
1.63302950654
1.62948356114
1.62851639539
1.62858798176
1.62915035064
1.63231704928
-0.0290739132852
-0.0138478884696
-0.00589814239424
-0.00297349688663
-0.0024575518034
-0.00150734092849
1.63001170121
1.6296816373
1.62859087927
1.62797178047
1.62744884655
1.63078301144
1.63614982983
-0.0221795405369
-0.0140806002879
-0.00604566485069
-0.00198705181929
-0.00159281057639
-0.00135094049309
1.62975009568
1.62968159881
1.62859082562
1.62797172972
1.62744882453
1.62566873366
1.59882535165
1.00840012962
0.121701566363
-0.022179383991
-0.0140804283819
-0.00604553641462
-0.00198696812905
-0.00159275473955
-0.00188506353019
1.63109300386
1.62992672623
1.62878853366
1.62851509687
1.62869438259
1.63182973363
1.64202660891
-0.0298176275277
-0.0151335400049
-0.00589362424205
-0.00211825167116
-0.00193425453352
-0.00154899202272
1.63942909189
1.62897077368
1.62824604916
1.62842710043
1.62887583794
1.63033947511
-0.0281357810369
-0.0127339119855
-0.00654672201874
-0.0038004298911
-0.00278131072131
-0.00259011655707
1.63375594547
1.62981964013
1.62858307192
1.62854976485
1.6290493709
1.63202173839
-0.0286550726391
-0.0139299349432
-0.00617649290768
-0.00321492760845
-0.00256844583945
-0.00155682756511
1.63059611921
1.62974084544
1.62850920717
1.62781774729
1.62719930153
1.63029718147
1.63555121175
-0.022137045091
-0.0138192042415
-0.00598599357307
-0.00224614460384
-0.00181690838155
-0.00163725165875
1.63028766406
1.62974081866
1.62850916265
1.62781771092
1.62719929164
1.62521727475
1.59768861525
1.00870230247
0.122378603414
-0.0221368546353
-0.0138190200826
-0.00598585828412
-0.00224605126503
-0.00181684183494
-0.00215606450087
1.63173995035
1.63012978414
1.62881092836
1.6284627972
1.62859140076
1.63148216736
1.64151380684
-0.0295916043816
-0.0150969717636
-0.00606561864921
-0.00237654439723
-0.00208335803343
-0.00160847788282
1.6398626707
1.62941756546
1.62834922277
1.62840323139
1.62878186006
1.63017989375
-0.0277804086203
-0.0129024384461
-0.00682061121232
-0.00398910826846
-0.00286876546538
-0.00265186745132
1.63786560106
1.63099896842
1.62867712306
1.62840120786
1.62886414615
1.63101542032
-0.0270271624287
-0.0146290172859
-0.0074203260852
-0.00414585340641
-0.00288579516861
-0.00172244660031
1.63415069745
1.63061732684
1.62862772562
1.62796181271
1.62767243835
1.62883631542
1.62998456236
-0.0279460038256
-0.0157642718718
-0.00703981386282
-0.00322160113138
-0.00241089961271
-0.00167657660392
1.63365398695
1.63057852898
1.62865322937
1.62781633389
1.62696580631
1.62445536176
1.59183411294
1.01273252683
0.137753865423
-0.0207335043049
-0.0159011100384
-0.00716979220106
-0.00308351691052
-0.00233290098547
-0.00176351712738
1.63550848853
1.63074661403
1.62866392093
1.62825750133
1.62850168427
1.6303365261
1.63675303757
-0.0289381939245
-0.0150895094173
-0.00697049347949
-0.00358357609851
-0.00264599377942
-0.0016913935815
1.64405434006
1.6315609397
1.62862878368
1.62834104905
1.62862441686
1.62958602916
-0.0264770950274
-0.0138978988217
-0.00782338177088
-0.00454947230707
-0.00302594027909
-0.00189596181206
1.64405429306
1.63524750781
1.66514063006
1.63555440457
1.6315610394
1.62948153928
1.63311377731
1.62912233124
1.62862902564
1.628391048
1.62873211183
1.62827242294
1.62834120714
1.62841693831
1.62824601942
1.62843400718
1.62862437206
1.62906126383
1.62851621843
1.62941621074
1.62958575526
1.62983373224
-0.0301022717947
-0.0280286043698
-0.0264784587475
-0.0178387847942
-0.0255634903627
-0.0179509071287
-0.0138989800541
-0.0104465379728
-0.0157542341528
-0.0101283810125
-0.00782418547333
-0.00587584275205
-0.00876257295002
-0.00564055181393
-0.00454998910124
-0.00365265963722
-0.00494351812011
-0.00347878289347
-0.00302622684196
-0.00250567310153
-0.00314560255611
-0.00235422554742
-0.00189613898639
-0.000347862353145
-0.00208329054351
-0.000330278963988
1.63460067467
1.63033627973
1.63470196084
1.63061209043
1.63268555103
1.62974208101
1.629320543
1.6367524785
1.63037534102
-0.0335381212853
-0.0376280732528
-0.0294739531135
-0.0350326861417
1.59183400821
1.22959824197
1.62584010791
1.58681810589
1.23928815001
1.01273248161
0.365940562192
1.02212275805
0.389404928168
-0.0376295089553
0.137753855163
-0.0258279031218
-0.0372070437291
0.1826901212
-0.0221637091462
1.22959825057
1.62998495536
1.58681818881
1.23928816647
1.62584038966
0.365940459602
1.02212274851
0.389404811917
-0.0258277793673
-0.0376289172833
0.182690090786
-0.0221635041087
-0.0372062297763
1.63470240173
1.63101569023
1.63460114181
1.62974233316
1.62932094661
1.63061234377
1.632686054
1.63037572947
-0.0376271485987
-0.033536868706
-0.0350315758126
-0.0294724645928
1.63524749785
1.66514074005
1.63555440851
1.62948133459
1.63311372561
1.62912223423
1.62839082523
1.62873199924
1.62827227898
1.62841686194
1.62824589394
1.62843401312
1.62906145163
1.62851631221
1.62941647025
1.62983405755
-0.0301007354479
-0.028026949074
-0.0178375783458
-0.0255621088833
-0.0179496956824
-0.0104455756783
-0.0157529819601
-0.0101275212997
-0.00587513752269
-0.00876173364385
-0.00563986569612
-0.00365228954439
-0.00494287221579
-0.00347837857161
-0.00250545241364
-0.00314525345028
-0.00235403814075
-0.000347836938009
-0.00208315790712
-0.000330260283073
1.66500052774
1.63500957187
1.64403071906
1.63325758148
1.63255249341
1.62878421164
1.63151337085
1.62865354928
1.62847885573
1.62819569153
1.62848705626
1.62827760727
1.62822648529
1.62854739936
1.62830589129
1.62849321169
1.62868842025
1.62975822875
1.628600795
1.62971330602
1.63016131854
1.6303609202
-0.0280130186235
-0.0301019321226
-0.025528575709
-0.0180433186715
-0.02673671675
-0.0174061766329
-0.0158180198408
-0.0101040968801
-0.015067185179
-0.00937634980576
-0.00870311407185
-0.00556703792108
-0.00804016348943
-0.00513983813508
-0.00485290226611
-0.0033829431988
-0.00450753806438
-0.00328011838225
-0.0030276121412
-0.00216025413712
-0.00298639181749
-0.00224961419043
-0.00183285106343
-0.000232490445542
-0.00186292435598
-0.000162743778637
1.63295189959
1.62996380855
1.62955368152
1.63127304032
1.6348206253
1.63051375974
1.63488922126
1.63060939143
1.63694681586
-0.0293774792532
-0.0350596892734
-0.0322600339122
-0.0362923469384
1.58701894351
1.23939879072
1.6301760588
1.59201073826
1.22966620165
1.02219001045
0.389465935648
1.01274364993
0.365640452278
-0.036901370281
0.182885038592
-0.0217087770866
-0.0377159026885
0.137265460114
-0.0271460147437
1.23939887368
1.62606454342
1.59201086885
1.22966626379
1.63017644867
0.389465839087
1.01274372131
0.365640564251
-0.021708730221
-0.0369006011865
0.13726553918
-0.0271458339851
-0.0377153786609
1.62955415947
1.63087451432
1.63295243811
1.63051395715
1.63488976423
1.63127329715
1.63482137419
1.63694744994
-0.0350586843765
-0.0293762893254
-0.0362915658776
-0.0322586373552
1.63500942939
1.6440307701
1.63325744056
1.62878364667
1.63151313958
1.62865300489
1.62819492351
1.62848645376
1.6282769489
1.62854695854
1.62830527288
1.62849283494
1.62975828967
1.62860052688
1.62971340995
1.63036123593
-0.0280117114096
-0.0301003677589
-0.0180421604995
-0.0267351886576
-0.0174049470768
-0.0101032492366
-0.0150660583922
-0.00937529489616
-0.00556639663471
-0.00803918730924
-0.00513920045216
-0.00338280905458
-0.00450705271333
-0.00327992169928
-0.00216048901069
-0.0029863418892
-0.00224968723741
-0.000232562386801
-0.00186294890757
-0.000162772705989
1.64233933085
1.63280181658
1.63973385098
1.63154105834
-0.00228297606967
-0.000144032967961
-0.00261657654791
-0.000167156742995
1.63280165292
1.63973384273
1.63154087239
-0.000144042340745
-0.00261638110604
-0.000167124922282
1.63942909226
1.63135141975
1.63950488015
1.63142476402
-0.0025903242385
-0.000169561903424
-0.00260901320585
-0.000174090477235
1.63135122771
1.63950485749
1.63142463944
-0.000169509921256
-0.00260873216704
-0.000174011155202
1.63986265079
1.6316831945
1.64242440725
1.63330032883
-0.00265211634843
-0.000179804604253
-0.00251514803881
-0.000233004286109
1.63168313047
1.64242444415
1.63330024973
-0.00017971975081
-0.00251497738162
-0.000232973665266
1.63359878535
1.63550846851
1.6326201958
1.65937442824
1.63538145547
1.65367802092
1.63416293896
1.62939737457
1.63074664381
1.62934479266
1.63193179735
1.62968657031
1.63145130317
1.62949705444
1.6284556407
1.62866401875
1.6283673186
1.62872157385
1.62841486388
1.62860794962
1.62829824942
1.62851143386
1.62825757731
1.62825623714
1.62836016606
1.62850986169
1.62818143118
1.62824839453
1.62966657731
1.62850164012
1.62919242524
1.62888790041
1.62959698675
1.62850101007
1.62904983292
-0.0200463795704
-0.0289390064951
-0.0211449794683
-0.0259505664463
-0.0202082531167
-0.0278027501242
-0.021110210509
-0.01036834041
-0.015090292758
-0.0102647775266
-0.0151051308573
-0.0109379972953
-0.0153545547377
-0.0107519334291
-0.00540156665656
-0.00697105827486
-0.00483100997175
-0.00794538773686
-0.00583437853098
-0.00762377082804
-0.00548664444165
-0.00338882967442
-0.00358396058297
-0.00298915732018
-0.0044542941052
-0.00356081463881
-0.0041636841501
-0.0033651474938
-0.00239584799239
-0.00264624091154
-0.00231456985602
-0.00295163773742
-0.00245608012219
-0.00283944842869
-0.00240028081096
-0.000652058295409
-0.00169153877561
-0.000628976333794
-0.0019424261369
-0.000324435135825
-0.00192886531466
-0.000366834846536
1.63194501481
1.63365397721
1.63169791547
1.65289751512
1.63328299483
1.65199548894
1.63292211537
1.6285323568
1.62445530611
1.61801547538
1.62784673592
1.62575322391
1.62337537649
1.61464769479
-0.000675258199854
-0.00176355269112
-0.000728588672151
-0.00187337620493
-0.000336106126775
-0.00188887332837
-0.000345435443806
1.63169791087
1.6341506694
1.63194500988
1.6519954523
1.63292211441
1.65289759178
1.63328300295
1.61801557339
1.62883646201
1.62853261717
1.62337543488
1.61464777711
1.62784687633
1.6257534576
-0.000728576560104
-0.00167650699865
-0.000675230394288
-0.00188883461633
-0.000345442385658
-0.00187327811274
-0.000336048059886
1.63262020241
1.63786561408
1.633598782
1.653678087
1.63416297914
1.65937452221
1.63538149312
1.62934471139
1.63099890013
1.62939723149
1.63145128903
1.62949698561
1.63193176676
1.62968647652
1.62836720407
1.62867694225
1.62845549096
1.62860785316
1.62829816864
1.62872145057
1.62841473343
1.62825617538
1.62840108661
1.62851135585
1.62818136342
1.62824832179
1.62836005485
1.62850978934
1.62919254951
1.62886416339
1.62966671124
1.62850103279
1.62904996199
1.62888796648
1.62959716331
-0.0211441863103
-0.027026024213
-0.020045374258
-0.0278018588735
-0.0211093801989
-0.0259493311458
-0.020207203413
-0.0102641400034
-0.0146280153599
-0.0103675144643
-0.0153537555575
-0.0107513087074
-0.015104187559
-0.0109371889494
-0.0048305376643
-0.00741957859084
-0.00540098145476
-0.0076231641155
-0.00548611810923
-0.00794464121705
-0.00583375359049
-0.00298889275809
-0.00414538541604
-0.00338852856841
-0.00416327200447
-0.00336485881997
-0.00445385815016
-0.00356047133634
-0.00231438789126
-0.0028855549206
-0.00239562631106
-0.00283920432424
-0.00240008957638
-0.00295136473322
-0.00245586501689
-0.000628928180513
-0.00172231970435
-0.000651997812762
-0.00192872801235
-0.000366795134511
-0.00194227376258
-0.000324406833485
1.64819051547
1.65290979825
1.67675205095
1.64823020281
1.66513124629
1.64435060184
1.65282668083
1.6403255728
1.63553008492
1.63688079414
1.64039013932
1.63550724242
1.63945033231
1.64240241906
1.63088306506
1.63335658733
1.63353163688
1.63098684941
1.63297895737
1.63125632573
1.63127716621
1.6298568342
1.62929153845
1.6292252052
1.62992325816
1.62906276186
1.63016217113
1.63001469378
1.62844269948
1.62889142801
1.62874889511
1.62845323664
1.6287102684
1.62857127257
1.62850015859
1.62836741855
1.6283719704
1.62830806513
1.62834144098
1.62830076377
1.6284711251
1.62834414053
1.62832259814
1.62836422521
1.6282637669
1.6282796291
1.62830459807
1.62837152457
1.62832064403
1.62838125818
1.62853029331
1.62846242148
1.62831051516
1.62846107261
1.62843205548
1.62833847992
1.62872197889
1.62865866186
1.62853278759
1.62876378371
1.62856719473
1.62887354781
1.62874641276
1.62893440597
1.62957493509
1.629352268
1.62895211694
1.62927291277
1.62912702216
1.62893444695
1.63044706992
1.63014896294
1.629746536
1.6307172389
1.62968861999
1.63117898378
1.63045500066
1.63121881494
1.63188970987
1.63213666386
1.63117981461
-0.0286696550268
-0.0285306146314
-0.02703288535
-0.0294977539199
-0.027203514013
-0.0300897775174
-0.0283543260893
-0.0221523156111
-0.0259472060436
-0.0247922988994
-0.0231180215449
-0.0247567603526
-0.0232387625039
-0.0224172328239
-0.0195605750126
-0.0179477363632
-0.0176375335827
-0.0204554615163
-0.017277793258
-0.0203561552319
-0.0199968315842
-0.0134035030158
-0.0156876407862
-0.0156280614716
-0.0136314790191
-0.0153157333387
-0.0136514514364
-0.0136154080897
-0.0116885650295
-0.0101128514999
-0.0102605089039
-0.0118040631893
-0.0101105292679
-0.0117358594738
-0.0119110515586
-0.00758280832607
-0.00868042511675
-0.00893405325844
-0.00753133039055
-0.00878204240184
-0.00749176577008
-0.00767508315619
-0.00656932162102
-0.00560284361829
-0.00575504369599
-0.00651040235731
-0.00570281066842
-0.00643384522105
-0.00667226747094
-0.0044030371921
-0.00488495087005
-0.00505913838616
-0.0043521389117
-0.00500192930217
-0.00432592619804
-0.00441734649921
-0.00391868793698
-0.00347078077864
-0.00350165182878
-0.00387648546305
-0.00351069672811
-0.0038398969312
-0.00394389632685
-0.00288445274227
-0.00313066825768
-0.00318073314811
-0.00286161419297
-0.00317217171896
-0.00287497668097
-0.00286226097153
-0.00261137461354
-0.0023846194786
-0.00231081754337
-0.00258998044197
-0.00236000717939
-0.00259770150023
-0.00260622828615
-0.00165890043117
-0.0021053282013
-0.00199419762845
-0.00168402923391
-0.0020813115273
-0.00182241636268
-0.00141273667059
-0.000964766913815
-0.00035205161514
-0.000247197883106
-0.000975981056371
-0.000317307597754
-0.00124576330567
-0.000784087797774
1.63157430592
1.63293777917
1.63252516718
1.63313751726
1.6321176868
1.63399727569
1.63216926527
1.63238372533
1.63133064983
1.63221746383
-0.0344778313508
-0.0301357742375
-0.0314613290291
-0.0312823690958
-0.0322907700856
-0.0317039721038
-0.0338174365515
1.62327289952
1.62523528067
1.62062460007
1.6125743486
1.6237673288
1.61548285746
1.61259692848
1.56130220148
1.23432078691
1.46427850239
1.45556598021
1.56837439863
1.01770242559
0.81084654409
0.807650091323
0.38203663668
0.596995493662
0.592075403249
-0.062722532735
-0.0511122428329
-0.0534493153413
-0.0563381845609
-0.0876376468479
0.164567901415
0.0170678454352
0.0153042851361
-0.07183824137
1.56130242662
1.23432080177
1.46427858598
1.45556614011
1.56837460251
1.62327308967
1.62523559792
1.61257453841
1.62062474786
1.61548309433
1.62376755409
1.61259701418
1.01770241342
0.810846585434
0.807650203778
0.382036411771
0.596995478325
0.592075423519
-0.0876373906135
0.164567727538
0.0170678720114
0.015304372939
-0.0718381182073
-0.0627223000737
-0.0511117665408
-0.0534489742583
-0.0563379275009
1.63157473786
1.63293830524
1.63313805166
1.63252555668
1.63399785811
1.63211812811
1.63216960837
1.63238419722
1.63133125201
1.6322181041
-0.0344765048131
-0.0301342553398
-0.0312809629337
-0.0314600108855
-0.0317024928158
-0.0322894873492
-0.0338163465402
1.64819062601
1.65290985809
1.6482303758
1.67675216917
1.6443507259
1.66513111043
1.6528270757
1.64032565205
1.63553005007
1.64039023715
1.6368808178
1.63945038468
1.63550721817
1.64240264482
1.63088295038
1.63335654136
1.63098677524
1.63353153669
1.63125625118
1.63297889606
1.63127708392
1.62985669094
1.62929139318
1.62992322072
1.62922513329
1.63016206771
1.62906261327
1.63001462155
1.62844244955
1.62889125676
1.62845307383
1.62874874573
1.62857104974
1.6287100527
1.62849994677
1.62836719764
1.62837179062
1.62834129531
1.6283079392
1.62847095602
1.62830060143
1.62834401443
1.62832242143
1.62836403139
1.62827947654
1.62826360828
1.62837132111
1.62830436926
1.62832053814
1.62838118645
1.62853027835
1.62831045033
1.62846249726
1.62843199232
1.62846118975
1.62833853947
1.62872210058
1.62865874821
1.62876395437
1.6285329588
1.6288736858
1.62856730077
1.62874655466
1.62893458778
1.62957517737
1.62895232762
1.62935256977
1.6291272365
1.6292731984
1.62893460717
1.63044753311
1.63014926651
1.63071769223
1.62974702722
1.63117933104
1.62968896677
1.63045569931
1.63121930169
1.63189017116
1.6321369673
1.63118059601
-0.0286682387225
-0.0285292311767
-0.0294958286145
-0.0270311280464
-0.0300894242271
-0.0272027232552
-0.0283507681723
-0.0221511419812
-0.0259455755974
-0.0231167817514
-0.0247917164834
-0.0232373060981
-0.0247557575688
-0.0224161666719
-0.0195594894849
-0.0179465530378
-0.0204542499244
-0.0176362299759
-0.0203548901383
-0.0172766242577
-0.0199958492694
-0.0134025483466
-0.0156866482252
-0.01363046381
-0.0156267141701
-0.0136505822272
-0.0153147405153
-0.0136143418813
-0.0116876559927
-0.0101120450663
-0.0118032298869
-0.0102595913564
-0.0117349804684
-0.0101095424147
-0.0119099582751
-0.00758207470657
-0.00867962923366
-0.00753056214665
-0.00893316289689
-0.00749108902842
-0.0087812452385
-0.00767438015043
-0.00656867136467
-0.0056022117459
-0.00650968446629
-0.0057542741637
-0.00643318140851
-0.00570205253653
-0.00667149044767
-0.00440251097638
-0.00488440262617
-0.00435160281437
-0.00505836639497
-0.00432549304039
-0.00500130038256
-0.00441671802986
-0.00391826603296
-0.00347039563277
-0.00387598996342
-0.00350121710977
-0.00383949149446
-0.0035103026887
-0.00394341152555
-0.00288428346068
-0.00313039461528
-0.00286134430748
-0.00318038428729
-0.00287480369005
-0.00317195819721
-0.00286210690622
-0.00261120905897
-0.00238441229139
-0.00258975625193
-0.0023106604116
-0.0025974973118
-0.00235986111352
-0.00260610591638
-0.00165884864986
-0.00210521662071
-0.00168394670686
-0.00199409881067
-0.00182237564793
-0.00208122534552
-0.00141271008865
-0.000964735846507
-0.000352029890747
-0.000975932707136
-0.000247188410798
-0.00124571951614
-0.000317303818761
-0.000784074937094
1.63518799308
1.65354871521
1.63402627909
1.63774201
1.63353619169
1.63542430877
1.63252776289
1.62948453885
1.63128384033
1.62934572695
1.63076732326
1.62918221187
1.63061625547
1.62921454963
1.62836668688
1.62850286094
1.62825030809
1.62853981487
1.62839257789
1.62856615123
1.62831480862
1.62861957363
1.62819710134
1.62832977127
1.6284038613
1.62858399162
1.62825651106
1.62830923677
1.62985970555
1.628647278
1.62924487184
1.62901640559
1.62990945461
1.62861076304
1.62934644385
-0.0201002164305
-0.0275529402738
-0.0208528147159
-0.0268129065497
-0.0201085595063
-0.0287509578552
-0.0210209030596
-0.0108490442736
-0.0151407769517
-0.0106023143066
-0.0146105078661
-0.0102675308485
-0.0149518459525
-0.0101462989946
-0.00574731715627
-0.00752918169812
-0.0054254283069
-0.00729144599727
-0.00527136020252
-0.00688555070693
-0.00476952312929
-0.00347717810362
-0.00411784795772
-0.00332186268513
-0.00402981362722
-0.00328997290735
-0.00353776705559
-0.00295001097898
-0.00232637391652
-0.00278799055491
-0.00233434616379
-0.00279239651448
-0.00227513627329
-0.00260581926113
-0.00226299651844
-0.000255047801894
-0.00185418017049
-0.000347799625609
-0.00154354790341
-0.000514945074668
-0.00163082655569
-0.000601126782382
1.63319186667
1.6519283069
1.6328591497
1.63408869642
1.6318926521
1.63361114237
1.63166420548
1.62916697156
1.63076881409
1.6291723869
1.63054971894
1.62919306984
1.63053425826
1.62926876368
1.62804360076
1.62833214959
1.62798999484
1.62855893684
1.62811435012
1.62860257155
1.62807577681
1.62778064705
1.62768387812
1.627420078
1.62795037185
1.62771103995
1.62780458843
1.62734627467
1.62795611875
1.62702934138
1.62602275595
1.62773856572
1.62789335857
1.62701520154
1.62592301105
1.6259567938
1.62353861511
1.61483686169
1.62898210363
1.62870460262
1.6245793076
1.61817208976
1.62085186833
1.61278582844
1.61281534076
1.62348842518
1.62545667288
1.62399358132
1.61569066905
-0.050357454431
-0.0550643220684
-0.0611678263591
-0.0525701775465
-0.0216394441813
-0.0217001389149
-0.0208406017259
-0.0280260099404
-0.0215637396301
-0.0201556529102
-0.0201008183156
-0.0105565349598
-0.0156588422118
-0.0107014203743
-0.0156444071652
-0.0107353627646
-0.0157087971122
-0.0110666555454
-0.00519320844406
-0.00734499026882
-0.00514305404636
-0.00697152560262
-0.00466709556193
-0.0070916277139
-0.00466689726316
-0.00317454445191
-0.00380171477151
-0.00310188021901
-0.0032064874171
-0.00267214959194
-0.00307588725823
-0.00255437063104
-0.00230192543418
-0.00268255604124
-0.00232207329074
-0.00240405715386
-0.00221918873147
-0.0023387129768
-0.00224100171323
-0.000325051948563
-0.00188428224923
-0.000345657262186
-0.00166295966426
-0.000668964300115
-0.00176698041536
-0.000731062016745
1.63285912646
1.65279213568
1.63319179552
1.63361115231
1.63166420321
1.63408869139
1.63189261812
1.62917233
1.63089483439
1.62916683488
1.63053423213
1.62926873676
1.63054962821
1.6291929444
1.62798995176
1.62835043449
1.62804344851
1.62860254385
1.6280757368
1.62855879474
1.62811422333
1.62742001441
1.62785841527
1.62778051385
1.62780456229
1.62734623707
1.62795022676
1.62771092146
1.62602273193
1.62779842353
1.62795609386
1.6270151856
1.6259230036
1.62773848033
1.627893339
1.61483696104
1.62803286473
1.62595703421
1.62457935018
1.61817217018
1.62898223965
1.62870486131
0.810882230243
1.01774919957
0.807651579452
0.0173875317024
-0.0711488180858
-0.087073834259
0.164609727606
0.0154058176813
-0.0208405300515
-0.0279567625025
-0.0216389325972
-0.0201555074144
-0.0201006007537
-0.0280255318755
-0.0215632452438
-0.0107013498452
-0.0154731065852
-0.0105560823053
-0.0157086114734
-0.0110665573688
-0.0156439964923
-0.010734924612
-0.00514300698242
-0.00733723415859
-0.00519299362207
-0.00709152689505
-0.00466683325036
-0.00697119663084
-0.00466682277843
-0.00310189461982
-0.00389252814249
-0.00317451218653
-0.00307584027033
-0.00255434134902
-0.00320629917279
-0.00267202592285
-0.00232211326914
-0.0027047521337
-0.00230196594398
-0.00233872017948
-0.00224102507794
-0.00240401698583
-0.00221919552115
-0.000345662379936
-0.00184697492537
-0.000324996412422
-0.00176697917584
-0.000731066319756
-0.00166295807241
-0.00066895741511
1.63402618173
1.65919839168
1.6351878812
1.63542429189
1.63252767373
1.63774200193
1.6335360918
1.62934547019
1.63167961259
1.62948414118
1.63061608606
1.62921429786
1.63076708183
1.62918183043
1.62824998335
1.62859707641
1.62836616496
1.62856585102
1.62831448887
1.62853933837
1.62839205117
1.62832949074
1.6283878784
1.62861917779
1.62825621278
1.62830896312
1.62840334916
1.62858360076
1.62924484065
1.62908248083
1.62985968925
1.62861058653
1.62934640413
1.6290161821
1.62990946114
1.63157769633
1.6326100326
1.63246112207
-0.0208520356251
-0.0257207731771
-0.0200991801853
-0.0287501236169
-0.0210201872741
-0.0268117566455
-0.0201075271543
-0.010601769643
-0.0150203963879
-0.0108481479517
-0.0149511867277
-0.0101456633354
-0.0146094918691
-0.0102666742727
-0.00542511592824
-0.0078549804666
-0.00574682705306
-0.00688506729461
-0.0047691743263
-0.00729078108913
-0.00527084041907
-0.00332180288772
-0.00437106434026
-0.003477018211
-0.00353750422145
-0.00294990129985
-0.00402947643077
-0.00328980079227
-0.00233439778055
-0.00285376396881
-0.00232644054984
-0.00260581340795
-0.00226303605116
-0.00279237693665
-0.00227515965384
-0.000347754183601
-0.00178325716335
-0.000255093013153
-0.00163084304971
-0.00060111710596
-0.00154355681923
-0.000514942374347
1.64802811394
1.67670677614
1.65287040561
1.65278503737
1.66518700323
1.64832209779
1.6442374695
1.63048572529
1.63293208995
1.63075357461
1.63043904429
1.63265028998
1.63063237343
1.63235315292
1.62826403461
1.62847401317
1.62829004002
1.62827790722
1.62857312471
1.6283532898
1.62843065197
1.62829812164
1.62820477655
1.62829455779
1.62829539918
1.62830235445
1.62837605481
1.62820688627
1.62898509645
1.62862214048
1.62887427442
1.62881991752
1.62879978414
1.62912588242
1.62857790426
1.63101834849
1.62999000356
1.63072168315
1.63072639097
1.63055290308
1.63148102402
1.62994904097
-0.0231169486966
-0.0248959022373
-0.0225546825782
-0.0225152184268
-0.0259570838816
-0.023482207128
-0.024968585668
-0.013665210106
-0.0157466931037
-0.0136824437951
-0.0135072829767
-0.0158770554306
-0.0136618077056
-0.0155695436305
-0.00747344730495
-0.00887161639848
-0.00761131487287
-0.00751715838682
-0.00861582511849
-0.00737595779331
-0.00877130858316
-0.00426848344203
-0.0049581906204
-0.00432357953412
-0.00428253745819
-0.00478004139865
-0.00420527324306
-0.00491207507306
-0.00273340283461
-0.00304627803221
-0.00270812763578
-0.00270759947435
-0.00301730654568
-0.00273649474098
-0.00304308057632
-0.00139577555166
-0.00168318133841
-0.00116356432405
-0.00123393291276
-0.0018290833612
-0.00143533933738
-0.00167871072208
1.62961738063
1.62870647817
1.62920901694
1.62856909591
1.62828604842
1.62829133196
1.62826506683
1.6283390017
1.62833431379
1.62847542157
1.62839133753
1.6285414776
1.6287373556
1.62935168892
1.6288130025
1.62949773143
1.63008033043
1.63023873494
-0.0312646844228
-0.0323944368991
-0.0273046626903
-0.0174730877665
-0.0280442655846
-0.0172209041626
-0.0132622324288
-0.00965562035705
-0.0129015636506
-0.00922735009643
-0.00713447509225
-0.00529864591582
-0.00676040068361
-0.00499339467513
-0.00413581486211
-0.0033772836927
-0.00392984070914
-0.00325840738231
-0.00286942970031
-0.00237674254704
-0.00282852733744
-0.00239356428315
1.63229566217
1.6330446748
1.63146939401
1.63366002635
1.63140468601
1.63167349977
1.63074542544
1.62897962497
1.63032944475
1.62920827427
1.629698499
1.62887115965
1.63006490348
1.62922271881
1.62845256067
1.62867288819
1.6284115846
1.62852814774
1.62853546568
1.62877112273
1.62854083768
1.62862884441
1.6283363495
1.62839364699
1.62854709506
1.62869503749
1.62845585243
1.62849749067
1.63011461663
1.62855083657
1.62972729453
1.62909241659
1.63027671057
1.62862039996
1.62996528904
1.63567628899
1.63114509224
1.63611039579
1.63210135624
1.63707761889
1.63155098311
1.638160777
1.63878325534
1.64159763407
-0.0357602722725
-0.0394191608061
-0.0363647992254
-0.0398112337753
-0.0199651654699
-0.0293513027271
-0.0202341495793
-0.0288721313715
-0.0199038411768
-0.0297404202708
-0.0202169677212
-0.00961224420502
-0.0149804593633
-0.00968350866122
-0.0139329307853
-0.00914207036957
-0.0150838175418
-0.00956286714337
-0.00466889572808
-0.0063448391578
-0.0040265276444
-0.00613611708893
-0.00418374973911
-0.00603228414615
-0.00358053663666
-0.00299627258977
-0.00282858343166
-0.00239950491665
-0.0031771534516
-0.00274283109904
-0.00235912298541
-0.00204450157557
-0.00221814392259
-0.00227590424529
-0.00209951575076
-0.0025390988208
-0.00220949501416
-0.00207380473614
-0.00205749290304
-0.000413724582008
-0.00149019595843
-0.000510914639137
-0.00152295236251
-0.000437628943734
-0.00159474456782
-0.00057618230226
1.63092214703
1.63139569266
1.63083258776
1.63055720904
1.63048473857
1.6302652939
1.63054514101
1.59550166552
1.22900093706
1.63563180758
1.5977706585
1.22837169249
1.01121186264
0.360038387023
1.00871880576
0.352438300605
-0.0391501107473
0.130167773295
-0.0285020187117
-0.0394319803618
0.122376340068
-0.029168305203
-0.000550308609453
-0.00144140257145
-0.000658257839101
-0.0016362057029
-0.000693681243161
-0.00216335413905
-0.000844298121688
1.63083258235
1.63178275071
1.63092210916
1.63026530663
1.63054513641
1.63055718586
1.63048470435
1.22900104271
1.63241735032
1.59777079711
1.22837170687
1.63563211572
0.360038508969