/*--------------------------------*- C++ -*----------------------------------*\
  =========                 |
  \\      /  F ield         | OpenFOAM: The Open Source CFD Toolbox
   \\    /   O peration     | Website:  https://openfoam.org
    \\  /    A nd           | Version:  7
     \\/     M anipulation  |
\*---------------------------------------------------------------------------*/
FoamFile
{
    version     2.0;
    format      ascii;
    class       surfaceScalarField;
    location    "5";
    object      phi;
}
// * * * * * * * * * * * * * * * * * * * * * * * * * * * * * * * * * * * * * //

dimensions      [0 3 -1 0 0 0 0];

internalField   nonuniform List<scalar> 
14871
(
-1.8423193112e-13
1.01055302259e-12
1.24348288579e-13
2.99330623865e-13
-5.93548043917e-14
-3.20929820488e-12
2.44561857465e-12
4.7488565716e-13
5.61392362497e-13
-4.4351871936e-14
-9.82427910078e-14
-7.06490772409e-14
-9.01286532257e-15
-1.98275285975e-12
1.72124496573e-12
1.60814804346e-13
1.51438530787e-13
-9.05231189457e-15
-1.73810020522e-14
-1.52992483049e-14
-8.76722704607e-15
-1.57072236661e-12
1.45704124748e-12
1.56230273522e-13
4.62099017403e-15
-9.867137504e-15
-1.38288908282e-14
-1.47068648405e-14
-2.48061333507e-14
-1.34345559934e-12
1.18978292056e-12
3.86722460745e-13
-1.04674993244e-13
-2.81215406978e-14
-3.52446400124e-14
-4.02023874943e-14
-7.21044962921e-14
9.87410694247e-13
-2.77079645017e-13
-9.69915882643e-13
-7.15714827057e-14
-9.93347342822e-14
-1.00484003363e-13
9.10554107905e-14
1.27684262275e-13
2.3080916875e-13
1.5353086479e-13
2.81513425712e-14
1.73730910542e-14
8.48282292999e-14
-4.67155198375e-13
1.94858965478e-13
3.02535593249e-14
4.52716819489e-14
5.00203490069e-14
1.82369775914e-14
2.70290623716e-15
-4.54096487945e-15
1.80811737332e-14
-4.74633895459e-13
7.88220324843e-13
-3.23421880323e-13
-7.68104231342e-14
1.42889325738e-14
3.00832884054e-14
2.41924777474e-14
2.59070360624e-15
-1.02132406578e-12
1.15960491812e-12
-6.91821998299e-14
-7.88691635676e-14
1.31150184233e-15
3.69976753401e-15
2.16862462259e-15
-5.5141640849e-16
-1.25076643393e-12
1.30659102712e-12
-4.14243756892e-15
-4.71334343653e-14
-8.6422452789e-16
-1.65100907407e-15
-1.48201106197e-15
1.83730847666e-17
-1.34069988491e-12
1.36926996483e-12
-5.71610445765e-15
-2.34935807065e-14
3.42015590254e-16
-3.73773058769e-16
6.53009484897e-16
3.0009746578e-15
-1.40937241373e-12
-4.20132127846e-14
-3.47973768483e-14
7.0135422916e-15
3.64132717779e-15
3.36904913162e-15
2.34710177371e-13
2.63829216356e-13
4.51289231322e-13
5.19329207262e-13
-4.01673400997e-14
2.65678066349e-14
9.72999017651e-13
2.90600530125e-13
-4.1254149347e-13
-3.28112115863e-12
2.85082881268e-12
2.21487301542e-13
6.21346537971e-13
-1.8746366519e-13
-2.5983359364e-12
2.45913613607e-12
1.1108583916e-13
2.15577626369e-13
-2.07383208487e-13
-2.41627784311e-12
2.44032712124e-12
1.362030401e-13
4.71308902648e-14
-5.43408115154e-13
-2.55522207713e-12
2.79076950188e-12
4.18827830365e-13
-1.10967139952e-13
-1.59446917412e-12
-3.22072331657e-12
3.79396313655e-12
1.69175462769e-12
-6.70525273566e-13
-3.55452694023e-13
-6.00255379882e-13
2.87075271159e-13
7.39147650512e-13
-7.05153265492e-14
-2.28925712839e-13
1.43259821874e-12
2.3725512133e-12
-2.70510945327e-12
9.92569684078e-13
-5.73061607526e-13
-3.85691821061e-13
-9.04930258221e-13
5.47756828427e-13
-2.33470906337e-12
2.1874333078e-12
-5.37616248043e-13
1.37135174973e-13
9.97508971506e-14
-2.10631066506e-12
2.05504031847e-12
-7.67839644358e-14
2.83034138442e-14
2.93619717424e-15
-2.04613897524e-12
2.06263121039e-12
2.14374227519e-15
-2.15721745903e-14
5.11862579041e-15
-2.07683983501e-12
2.09443774963e-12
1.05157776068e-15
-2.37681181668e-14
4.39104614876e-14
-2.117035836e-12
-1.97420888543e-14
-4.3208698189e-14
3.54479097613e-13
3.61164987896e-13
7.18952418356e-13
7.0147951083e-13
1.05501114739e-18
-7.71158631108e-15
9.6730895042e-13
2.90401580879e-13
-1.28871715534e-18
-3.2292007108e-12
2.84434174548e-12
-2.21490190381e-13
6.0635044452e-13
-3.34626262812e-18
-2.65665901817e-12
2.56327952459e-12
-1.11092674564e-13
2.04475514424e-13
-5.71403761144e-18
-2.57859788561e-12
2.6827665409e-12
-1.36211339257e-13
3.20483980226e-14
-4.70863926757e-18
-2.95805659937e-12
3.54978351681e-12
-4.18829175859e-13
-1.7289303293e-13
-3.94514695036e-19
-4.73132739902e-12
7.08905181407e-12
-1.69176254883e-12
-6.65961471723e-13
5.74646533599e-18
-1.50678892472e-12
-1.15346116313e-11
5.66332931939e-12
2.12617622406e-12
2.69174369471e-12
8.23617632442e-12
-1.21639411672e-12
-1.21839866233e-12
-1.52755173287e-12
-1.713685815e-12
3.6600528801e-22
-7.71186859146e-12
7.67089347267e-12
4.09751184353e-14
1.45558138497e-18
-7.30666818486e-12
6.84615382751e-12
4.60512901774e-13
-9.78573205878e-12
8.01608040969e-18
5.8767460019e-12
2.70506584201e-12
1.20391219907e-12
1.24968079475e-17
-3.88739019318e-12
2.91839832771e-12
5.37578995895e-13
4.31400372456e-13
3.70986625126e-18
-2.460469025e-12
2.2573255286e-12
7.67618948942e-14
1.26377891581e-13
-6.10504130438e-18
-2.18315469025e-12
2.18301259293e-12
-2.15070411366e-15
2.29890649161e-15
-1.12664202861e-17
-2.19314977839e-12
2.20710596177e-12
-1.04733070309e-15
-1.28975862404e-14
-7.84500683749e-18
-2.22380918828e-12
1.97448110394e-14
-2.53130144964e-14
3.73568465001e-13
3.71848220819e-13
7.39709608365e-13
7.44258806033e-13
4.01675124354e-14
-5.83877148148e-14
9.78021736942e-13
2.90198475098e-13
4.12534171899e-13
-3.33695151479e-12
2.78893439326e-12
-4.74885999555e-13
6.10368949272e-13
1.87448899535e-13
-2.42940380791e-12
2.21151368288e-12
-1.60812094298e-13
1.91253319808e-13
2.07362431334e-13
-2.09441545436e-12
2.02347114274e-12
-1.56227091966e-13
1.9808972251e-14
5.43394743857e-13
-1.98721518364e-12
1.96240546991e-12
-3.86723678984e-13
-1.31861351152e-13
-9.87413366017e-13
-4.51749443102e-13
1.59446886575e-12
-1.94761468603e-12
4.00313772295e-13
2.8169202789e-13
4.59758011194e-13
6.50544788186e-13
3.55453691079e-13
-1.79995346691e-13
-1.26380921105e-13
-4.9077423301e-14
-2.74984326943e-14
-1.43256215452e-12
7.46232260048e-13
4.67140733896e-13
4.30779074327e-13
-2.04463285503e-14
-1.0106819072e-13
-6.25759552627e-14
-5.47743024193e-13
-1.19289471458e-12
1.43155961011e-12
3.2339120633e-13
-1.43130777392e-14
-9.97487768956e-14
-1.59333313186e-12
1.67390109124e-12
6.91676749249e-14
-4.99868574148e-14
-2.94528869591e-15
-1.73414629014e-12
1.77650555838e-12
4.13376913411e-15
-4.35477486669e-14
-5.13392317834e-15
-1.80391925885e-12
1.8286502755e-12
5.71409506032e-15
-2.53111885349e-14
-4.39192162715e-14
-1.8603464389e-12
4.20157604195e-14
-3.87996735018e-14
3.27130273856e-13
3.13176755118e-13
6.12512883648e-13
6.4822949303e-13
1.84232406609e-13
9.97515533738e-13
-2.18002421877e-13
2.86254502129e-13
-3.76463681055e-13
5.93548543875e-14
3.03096582691e-13
-3.02859918872e-14
4.42977323622e-14
-1.91398432303e-13
9.01044164511e-15
1.77002112716e-13
-4.03781672833e-15
9.42299741742e-15
-1.49808236828e-13
8.7614334404e-15
1.44237385428e-13
-2.89735477457e-15
-2.93798180405e-16
-1.27636449756e-13
2.48031857627e-14
1.18818178109e-13
-7.29940190119e-15
-8.68599837544e-15
7.21032833486e-14
-7.95029822062e-14
5.14708388229e-14
-2.09559543205e-14
-2.31155618546e-14
1.70359909137e-14
-2.81499261378e-14
7.84806548724e-16
4.67859423226e-15
5.64953786322e-15
-6.22551436431e-14
-1.80748188683e-14
7.8058216391e-14
3.21174545832e-15
-9.41295523446e-16
-1.0921861919e-13
-2.59191707389e-15
1.14303503991e-13
3.55875937712e-16
-2.84971520192e-15
-1.22883143336e-13
5.51228765595e-16
1.24514978938e-13
-1.75942708538e-16
-2.00762977059e-15
-1.26979486182e-13
-2.21241840653e-17
1.28402599587e-13
-1.39883817364e-16
-1.26143735498e-15
-1.35090230607e-13
-3.00598437221e-15
1.36352143406e-13
-6.13754431093e-17
1.8050975119e-15
-3.35098724172e-13
-1.03315063641e-12
5.66939153224e-12
1.16306626428e-12
6.19736433802e-13
-3.33264876103e-13
-3.77276705184e-13
-3.73403447789e-13
-8.26132994257e-13
-5.18076571821e-13
-5.68907910479e-12
5.33811395963e-12
1.00634877051e-12
6.88825940861e-13
-2.67600486454e-13
-1.84498123237e-13
-5.04953357153e-12
4.80077038834e-12
4.43250300686e-13
2.57611492168e-13
-6.50645578103e-15
-1.39030871357e-13
-4.58697625196e-12
4.35157618376e-12
3.76641659138e-13
4.29573617813e-15
2.07079833658e-13
-2.80913722054e-13
-4.03537502754e-12
3.51759273216e-12
8.06496258599e-13
-2.14880074834e-13
4.67066825909e-13
-1.48261045795e-13
-2.71694977282e-12
1.79797850151e-12
-4.31192697031e-13
-1.55974033463e-13
-1.49649525492e-13
-1.55841676781e-13
3.06839521049e-13
4.36469798866e-13
4.41582370879e-13
3.0793156309e-13
-3.70679577634e-13
9.33725954326e-14
-6.10970775414e-14
1.20494887796e-12
-1.3834326484e-12
2.54817250243e-13
8.11907201103e-14
9.59532729858e-14
8.49265605466e-14
7.1033647138e-14
3.91946571808e-13
-2.68205744698e-12
3.48820541334e-12
-1.26734089315e-12
-1.78729230344e-15
9.81872181396e-14
1.51121284353e-13
-3.97480479449e-12
4.19056769968e-12
-4.00544759761e-13
-6.45266479905e-14
7.28822929346e-14
3.5549178706e-14
-4.29832399175e-12
4.34828434627e-12
-9.78935951328e-14
-6.04982310299e-14
5.34011204625e-14
3.26658282641e-15
-4.37449270342e-12
4.4038196271e-12
-3.28446679532e-14
-5.31499589949e-14
1.95687041842e-14
3.98000665952e-14
-4.45836952788e-12
4.50979200754e-12
-1.01299949988e-13
-4.18663784494e-14
7.98535027773e-15
1.77604848831e-14
6.62912406022e-15
-1.06043076128e-12
-7.40763739073e-13
5.80393136785e-12
3.38409606835e-13
6.58853525786e-13
3.10107899392e-11
1.4194464155e-18
1.69261059959e-12
-8.80498773564e-13
-6.46311246562e-13
-8.92952076184e-13
-6.44154424437e-13
-8.71273482826e-13
-6.52211693617e-13
-8.94800247202e-13
-6.58620439041e-13
-6.60154616026e-12
-6.60813490578e-12
-6.66793797065e-12
-6.68495638599e-12
3.33635694459e-11
-6.29078142724e-18
8.23422114053e-13
-3.77609412671e-13
-2.51100520568e-13
-3.78091079241e-13
-2.47671029087e-13
-5.07244462304e-13
-4.33857142157e-13
-5.32118079606e-13
-4.48466967086e-13
3.56607437724e-11
2.50060167032e-18
7.09770232038e-14
-8.51154831185e-14
2.23727373959e-14
-5.73550184231e-14
5.10329825558e-14
-5.03152732663e-13
-6.28753095808e-13
-5.21321037749e-13
-6.45806028376e-13
8.55108014629e-12
-7.16357985125e-18
-8.86297930865e-13
1.98705602054e-13
4.73465084085e-13
3.40328214255e-13
5.19529783991e-13
-1.21035494006e-12
-1.64737509822e-12
-1.24479070218e-12
-1.66543682393e-12
1.13557051288e-11
8.96926727471e-12
1.19069356959e-11
9.92563336339e-13
-2.82073993506e-12
8.29580908088e-12
2.89859273592e-12
-8.15151860588e-13
2.3611607241e-13
-8.22278813147e-13
-1.36025971336e-12
6.26385214752e-13
1.52102981571e-12
-2.00993256796e-13
4.13471002577e-11
-1.15187842056e-16
3.12963954434e-12
-1.16847534371e-12
-5.26910266156e-13
-2.07167528113e-12
-1.46073618716e-12
3.9458596401e-12
3.9296743877e-12
4.00110073434e-12
4.17113370542e-12
-5.75438277915e-12
-2.18240401295e-11
-5.69480633194e-12
-2.20233649639e-11
3.59224144542e-11
-9.7951367324e-17
1.72229524648e-12
-5.44961555335e-13
-4.99498352899e-13
-8.87069490902e-13
-7.73546424895e-13
1.83475228483e-12
1.20985405001e-12
2.01808182136e-12
1.34473565847e-12
3.51255035261e-11
-2.68137115707e-17
6.53030560747e-13
-2.86060164088e-13
-2.0143751722e-13
-4.19596726226e-13
-3.16199310872e-13
3.99902393056e-13
2.41924969996e-13
4.69738480049e-13
2.55607205275e-13
3.49222324103e-11
-1.74723592856e-19
6.09862211237e-14
-5.93761799e-14
1.66147981376e-14
-1.14243868122e-13
-2.67152054843e-14
6.92482650789e-14
9.44334524494e-14
7.85905347483e-14
8.36196847231e-14
7.95624576102e-12
1.86810391442e-17
-2.41360988669e-13
6.03964448785e-14
1.16498264831e-13
4.47830439487e-14
1.01873288095e-13
6.26405528414e-14
1.47987483422e-13
6.27621800388e-14
1.31886289204e-13
8.36556706178e-12
8.81851147591e-12
9.29434481452e-12
1.18021682467e-13
1.72258875736e-13
7.7368701163e-12
-5.31737714007e-14
-1.77313326278e-14
-1.05206300445e-12
2.15786782556e-18
5.74081715701e-12
-3.38412952923e-13
6.49656643856e-13
3.10107977054e-11
-8.71260917174e-13
1.69261125072e-12
-8.92952861378e-13
-6.44157856785e-13
-8.804880054e-13
-6.46305541193e-13
-6.60814192766e-12
-6.60154502882e-12
-6.68496430355e-12
-6.66793523911e-12
-6.52210211701e-13
-8.94794101093e-13
-6.58621283898e-13
3.3363568642e-11
-5.07227475121e-13
8.2343111503e-13
-3.78089595723e-13
-2.47667299597e-13
-3.77601414841e-13
-2.511065343e-13
-4.33853695407e-13
-5.32114469323e-13
-4.48464693873e-13
3.56607031716e-11
-5.0313916343e-13
7.09794096817e-14
-5.73516711946e-14
5.10383067025e-14
-8.51154701764e-14
2.23624136017e-14
-6.28750306902e-13
-5.21317392664e-13
-6.45806875464e-13
1.13557097917e-11
-1.21034456939e-12
-8.86283646404e-13
3.4033564704e-13
5.19536740774e-13
1.9869904903e-13
4.73447414673e-13
-1.64738307718e-12
-1.24478504308e-12
-1.66543937691e-12
8.55105632152e-12
1.19069412054e-11
8.96924982662e-12
9.85594580564e-13
-5.17985114855e-18
1.41071681555e-11
-2.89859306168e-12
-8.3845270703e-13
1.88458476765e-12
3.30068487893e-18
-1.36253483456e-12
9.89116168602e-12
3.43875973725e-12
3.44683822623e-12
9.92855844821e-12
-1.88402164972e-11
-2.21717822115e-12
-1.96930445237e-12
-1.9750129335e-12
-2.2256573971e-12
1.24806799063e-14
-1.84653557658e-19
-1.31964579699e-11
1.32032489177e-11
-1.92714430937e-14
-3.15466935252e-13
2.63486065919e-18
-1.33128476416e-11
1.34150455415e-11
2.13266400464e-13
4.13470808933e-11
3.94582608191e-12
3.1296803336e-12
-2.07169574275e-12
-1.46076344837e-12
-1.16851047117e-12
-5.26959109222e-13
-2.18240299157e-11
-5.75442431983e-12
-2.20233496319e-11
-5.69484280887e-12
3.92963430123e-12
4.0010660432e-12
4.17110242631e-12
3.59224813744e-11
1.83473728973e-12
1.72234052917e-12
-8.87090172806e-13
-7.73543268012e-13
-5.44991219158e-13
-4.99533118949e-13
1.2098400031e-12
2.0180557117e-12
1.34472458611e-12
3.51255383922e-11
3.99904300021e-13
6.53049346694e-13
-4.19603937054e-13
-3.16201147735e-13
-2.86086236244e-13
-2.01455549862e-13
2.41928787799e-13
4.69733534143e-13
2.55607434006e-13
3.49222500544e-11
6.92610805794e-14
6.09978434676e-14
-1.14243519963e-13
-2.67166823946e-14
-5.93848959071e-14
1.6621172944e-14
9.44599912974e-14
7.85974226661e-14
8.36383252392e-14
8.36556850551e-12
6.26803357962e-14
-2.41358033207e-13
4.47901404707e-14
1.01881294276e-13
6.04153082581e-14
1.16525677759e-13
7.95625304924e-12
9.29434104177e-12
8.81850700856e-12
1.48020991693e-13
6.27873395589e-14
1.31900828332e-13
7.64052438936e-14
-1.58273968672e-17
8.21737553428e-12
5.31912304585e-14
1.86060052065e-14
-1.05916128808e-12
7.40764132247e-13
5.82150203231e-12
-1.16306618851e-12
6.59961312164e-13
-9.16675187357e-13
-6.40128533095e-12
6.62917969707e-12
-1.00635195123e-12
8.23872880928e-13
-3.54248037669e-13
-6.61699259671e-12
6.54782090141e-12
-4.43255116673e-13
3.59436086605e-13
-4.38858550586e-14
-6.4387367555e-12
6.31436123051e-12
-3.76642407997e-13
4.17553005128e-14
2.47927507459e-13
-6.18339350024e-12
5.80644254876e-12
-8.064972384e-13
-2.74842001733e-13
7.3506147378e-13
-5.28328949433e-12
-1.79798127344e-12
-6.51123396653e-13
2.8207369346e-12
1.19862307626e-12
8.72436750799e-13
8.85475562076e-13
1.22006037334e-12
1.18990234885e-13
8.22280800638e-13
-5.60683186078e-13
-2.77435746014e-13
-1.03152103474e-13
-6.16399601612e-13
-1.35540528554e-12
3.97421778876e-12
1.38340497702e-12
5.59944157049e-13
-1.03658670488e-13
-5.67633672691e-12
6.17062398011e-12
1.26733044624e-12
1.76720035251e-13
3.6065624314e-15
-6.43597695092e-12
6.37810244294e-12
4.00541138315e-13
5.35849953436e-14
4.89410121535e-14
-6.33961611911e-12
6.26770819723e-12
9.78982388924e-14
-5.69259487101e-15
6.12798552642e-14
-6.28253522774e-12
6.30149568368e-12
3.28488441109e-14
-5.04218451891e-14
6.2940631666e-14
-1.72277143222e-13
-6.35808886744e-12
6.41589310322e-12
1.01303002718e-13
-4.97707269134e-14
-1.30914970074e-13
3.35100894408e-13
-3.18399684657e-13
9.33103993386e-14
1.27090338394e-12
-1.51567366314e-13
-9.24555427248e-13
5.1807385867e-13
2.45747813705e-12
3.62206060338e-13
-1.21622722432e-13
-9.16749185273e-14
-7.00728008002e-14
-5.27416489891e-13
-9.22994822574e-13
-5.27853704066e-13
-3.80387832232e-14
1.84493561757e-13
-2.16444800941e-12
1.97723472901e-12
1.01510469718e-13
-2.89541027672e-14
-1.80412381453e-14
-1.37565884539e-14
4.07810873116e-16
1.39026712355e-13
-1.85314873328e-12
1.71528766945e-12
-1.3656101745e-14
4.29187874523e-15
2.73894797496e-15
5.05184153267e-15
3.12425883323e-14
2.8091483326e-13
-1.53525506158e-12
1.24929260479e-12
-1.10118533287e-13
3.58737278412e-14
2.23680286758e-14
2.56817435231e-14
6.03866907519e-14
1.48260233074e-13
-2.80634789416e-13
2.10787510421e-13
-7.12968423329e-14
-6.75026960759e-14
-2.42014656383e-14
-9.33659787881e-14
-1.47774243651e-14
8.2216742708e-14
2.68017117349e-14
2.33246228405e-14
2.11712291721e-14
-3.91927529246e-13
-7.00261566866e-13
1.08317896319e-12
-4.71360107345e-14
1.51193718735e-14
9.82001666311e-15
1.00357325383e-14
1.73184461187e-14
-1.51114354835e-13
-1.38958736016e-12
1.54986460986e-12
-6.57733787132e-14
1.31239023084e-14
1.33934480869e-14
1.27747679377e-14
1.05587947301e-14
-3.55496064002e-14
-1.6470962086e-12
1.69255426513e-12
-4.59038849118e-14
8.81318777396e-15
8.47902895475e-15
8.14447968993e-15
9.53954191212e-15
-3.26955686372e-15
-1.70969385874e-12
1.71587299001e-12
-3.73509320622e-14
1.10562269884e-14
6.27801976673e-15
7.56758540867e-15
3.68536110314e-15
-1.95703195655e-14
-5.65662971508e-13
6.17143764804e-13
-2.66191718952e-14
-8.97698451249e-15
-3.29686984449e-13
-2.83499510115e-13
5.53146051771e-12
1.13557977043e-12
1.0045207255e-14
-3.29781032597e-13
-3.67191909661e-13
-3.66926192784e-13
-3.83477793219e-13
-5.00619971227e-13
-5.64667691671e-12
5.52986099902e-12
9.80825818611e-13
2.00878636508e-14
-1.57656302675e-13
-1.90654735128e-13
-5.47066564179e-12
5.35994713376e-12
4.5715065873e-13
1.87888705604e-15
5.11899095338e-16
-1.46724241377e-13
-5.22029688934e-12
4.98196940568e-12
3.9475891689e-13
-1.0219090981e-14
1.40961409449e-13
-2.98284205995e-13
-4.60820337716e-12
3.94286071745e-12
8.40101028457e-13
-1.7435572207e-14
2.56100047053e-13
-1.42967484473e-13
-2.95200132923e-12
1.7652049135e-12
-1.3910212856e-14
-1.48467880045e-13
-1.42583103861e-13
-1.4795716487e-13
4.50331507943e-13
3.13059548073e-13
4.50733845982e-13
3.12457108467e-13
-1.45747985427e-13
9.30638989155e-14
-1.19917979424e-13
1.33493181e-12
-1.43701780139e-12
1.6875603101e-14
8.26494473866e-14
9.27040398324e-14
8.24589016107e-14
-3.13674513372e-14
4.91265170009e-13
-3.1625486754e-12
4.15791157635e-12
-1.47033003908e-12
1.50694192401e-14
2.1532848982e-14
2.2235282193e-13
-4.7797444332e-12
5.04651559302e-12
-5.19619655073e-13
8.96282423871e-15
3.1231172524e-14
6.88015212583e-14
-5.17868354171e-12
5.23015200457e-12
-1.5388952264e-13
2.38836599572e-15
3.57795076129e-14
2.1091747375e-16
-5.24860561069e-12
5.25521579487e-12
-3.86648256143e-14
-3.93578362212e-15
1.35408706277e-14
3.53085893201e-14
-5.28006799728e-12
5.30470924541e-12
-8.25171311238e-14
-8.04966915437e-15
1.90464958813e-15
1.34485713231e-14
1.72276389056e-15
-3.16199881049e-13
-7.25705097518e-13
5.70272563494e-12
3.30598123145e-13
8.58122059578e-15
3.32540360995e-11
-5.59659694841e-18
-1.52488244006e-12
-8.84086501869e-13
-6.61057420268e-13
-8.79857484905e-13
-6.59755592998e-13
-6.72414462575e-12
-6.75460008923e-12
-6.72102037179e-12
-6.75198315095e-12
3.68365946918e-11
-3.62422872167e-18
-7.48562006123e-13
-5.4703549181e-13
-4.57586296221e-13
-5.47157847618e-13
-4.58700631905e-13
3.93386566816e-11
1.76545640356e-19
-9.31169072315e-14
-5.25812888052e-13
-6.41472441395e-13
-5.27269798132e-13
-6.43376494883e-13
9.35267739032e-12
6.14087818249e-18
7.91870645269e-13
-1.23794259285e-12
-1.64673439705e-12
-1.2401456764e-12
-1.64956573684e-12
1.23647553777e-11
9.35285764136e-12
1.23646193079e-11
-2.84447792617e-12
5.18461103228e-13
8.72716312209e-12
2.97031800099e-12
-1.87900109545e-14
8.62984883221e-14
-8.102100505e-13
-1.38507064102e-12
6.2604226247e-13
1.52687760181e-12
-4.39382846705e-14
4.47407179713e-11
-6.47449472351e-17
-3.09544643783e-12
4.06045457837e-12
4.26863260648e-12
4.05651537685e-12
4.26659814923e-12
-5.64341026623e-12
-2.19299182132e-11
-5.65028067174e-12
-2.194420523e-11
4.10435122873e-11
-2.77350828926e-17
-1.64955702515e-12
2.10694889712e-12
1.42424666262e-12
2.11051515609e-12
1.42729698568e-12
4.07769050034e-11
1.9259019368e-17
-5.84085734656e-13
4.8579749593e-13
2.63936407246e-13
4.88435155126e-13
2.65545914484e-13
4.05295942287e-11
3.12432092947e-17
-2.42882109259e-14
7.58928320513e-14
8.98343415516e-14
7.67595060904e-14
9.01195472116e-14
9.63029052566e-12
3.69271927059e-17
2.29590123731e-13
7.43693844384e-14
1.60501761895e-13
7.40052491962e-14
1.59431901246e-13
1.01629739242e-11
9.63264300988e-12
1.01644729502e-11
1.00879238397e-13
1.48882537437e-13
9.42085480066e-12
-3.36248044343e-14
-6.71237893312e-15
-3.13671500772e-13
6.45936498201e-19
5.63663167219e-12
-3.30600824417e-13
7.64000715677e-15
3.32540450202e-11
-8.84074204236e-13
-1.52488353572e-12
-6.75460415395e-12
-6.72414215081e-12
-6.75199113617e-12
-6.72101576011e-12
-6.61060386253e-13
-8.79854847653e-13
-6.59761047693e-13
3.68365727166e-11
-5.47032500286e-13
-7.48566869381e-13
-4.57591438599e-13
-5.47159318137e-13
-4.58706474864e-13
3.93386208927e-11
-5.25815172998e-13
-9.31255254077e-14
-6.41480622407e-13
-5.27273218623e-13
-6.43385072041e-13
1.23647504387e-11
-1.23794410635e-12
7.91865095284e-13
-1.64674521019e-12
-1.24014388319e-12
-1.64957492003e-12
9.35265867349e-12
1.23646209019e-11
9.35283947074e-12
5.45650652897e-13
-4.38444256086e-18
1.48095869184e-11
-2.97031563799e-12
-2.01507387765e-14
7.01893567792e-13
-2.01651121564e-18
-1.10326190389e-14
3.47232013093e-12
1.00005298871e-11
3.47125253694e-12
1.0003971733e-11
-1.92015410383e-11
-1.98738928032e-12
-2.23139937711e-12
-1.98767261208e-12
-2.23092925798e-12
1.38320074863e-14
-6.65909805071e-20
-1.33596397003e-11
1.33534438607e-11
-7.63610123448e-15
-5.14898394646e-14
1.22826906203e-18
-1.34089929765e-11
1.3436804555e-11
2.3677032757e-14
4.47406980628e-11
4.06044792781e-12
-3.09548553825e-12
-2.19299073368e-11
-5.6434636225e-12
-2.19441829143e-11
-5.65030220582e-12
4.26861882235e-12
4.05649860019e-12
4.26657064682e-12
4.10435857876e-11
2.10695368235e-12
-1.6495726198e-12
1.42425446533e-12
2.11050204505e-12
1.42729048875e-12
4.07769647401e-11
4.85801087597e-13
-5.84083227889e-13
2.63952568375e-13
4.88433686641e-13
2.65545476385e-13
4.0529610649e-11
7.58961001782e-14
-2.42925272051e-14
8.98524084234e-14
7.67629724949e-14
9.0128674191e-14
1.01629673663e-11
7.43797059804e-14
2.29582643142e-13
9.6302798191e-12
1.01644662604e-11
9.63263329843e-12
1.60508771186e-13
7.40189909625e-14
1.59437028845e-13
9.59141427488e-14
-1.11136932363e-17
1.0039506878e-11
3.36406666269e-14
-6.07981136081e-15
-3.10712478308e-13
7.25709051318e-13
5.71058260341e-12
-1.13557738746e-12
9.99821116988e-15
-4.71580884091e-13
-6.46791924106e-12
7.0082355025e-12
-9.80834251496e-13
2.80141006274e-14
-2.26184909238e-13
-7.290654408e-12
7.41773887357e-12
-4.57153814265e-13
9.21223849803e-15
-2.54446909663e-14
-7.41606111715e-12
7.31888297948e-12
-3.94760498804e-13
-8.44041484114e-15
1.75343778068e-13
-7.1364559607e-12
6.5834002629e-12
-8.40102115646e-13
-2.0130460585e-14
3.84930430113e-13
-5.81758709057e-12
-1.76521825996e-12
-1.80020839535e-14
2.84447386409e-12
9.18644910113e-13
1.26670544451e-12
9.18552738221e-13
1.26749998106e-12
4.43138281974e-14
8.10211822933e-13
-5.6407520932e-13
-2.68036535514e-13
-2.24139063387e-14
-3.07984078266e-13
-1.48157149989e-12
4.39299381077e-12
1.43698583969e-12
1.9966244835e-14
-1.33913281759e-13
-6.57739670448e-12
7.33259885422e-12
1.4703300881e-12
1.5324778214e-14
-4.96920588183e-14
-7.75212557716e-12
7.75671612526e-12
5.19625650659e-13
1.1275955632e-14
-3.13290906858e-15
-7.72373786231e-12
7.6443388172e-12
1.53899515815e-13
4.52978179335e-15
3.63558606744e-14
-7.65255333915e-12
7.65529453269e-12
3.86750209325e-14
-3.39347791777e-15
5.09396968049e-14
-1.48898290995e-13
-7.6964947697e-12
7.72068475833e-12
8.25268581668e-14
-8.75825258432e-15
-2.81647810139e-14
3.29689080507e-13
-3.15240491334e-13
1.42656063566e-14
1.24945052495e-12
-8.99435669037e-13
-1.9273484484e-13
5.0061418666e-13
2.50402446689e-12
2.01408133421e-15
-5.1005017466e-13
-8.96067069381e-13
-5.08365011656e-13
-6.110749534e-14
1.90655748863e-13
-2.33423081455e-12
2.20960028189e-12
-4.91772087e-15
1.02300799852e-14
1.46726016207e-13
-2.11104912682e-12
1.96089172216e-12
-6.79869153657e-15
7.03549565189e-14
2.98286738924e-13
-1.7421638128e-12
1.3819557711e-12
-8.43365373088e-15
3.87881282522e-14
1.42967111986e-13
-3.00293715787e-13
2.17220818698e-13
-7.73999920519e-14
-2.12823829027e-14
-1.75311760536e-14
-9.30651800633e-14
-8.28189486838e-15
7.98159211668e-14
2.79854560925e-14
1.10746675652e-14
1.53832534578e-14
-4.91262191499e-13
-8.67794278182e-13
1.33560201881e-12
8.07119736137e-15
3.45804552795e-14
-2.22353569988e-13
-1.70931063733e-12
1.89209871537e-12
4.98503668553e-15
2.72908965729e-14
-6.87995514377e-14
-1.99857512759e-12
2.03853761183e-12
1.54617062991e-15
2.40619575053e-14
-2.14495196868e-16
-2.04073268046e-12
2.01871589089e-12
-1.83067274881e-15
7.80125228383e-15
-1.35422850295e-14
-6.65733306454e-13
7.19805661183e-13
-4.39144361079e-14
-4.41725635598e-15
-3.28404379821e-13
2.59330373344e-13
5.58095345203e-12
1.13135304969e-12
-5.85896817191e-13
-3.27699715022e-13
-3.65253091645e-13
-3.64383025609e-13
3.43878946489e-13
-5.12437579909e-13
-5.68856602757e-12
5.52465214924e-12
9.84178178793e-13
-6.51705666906e-13
1.55927759844e-13
-1.98856235977e-13
-5.40564421244e-12
5.25170072606e-12
4.57394633978e-13
-2.60522671504e-13
2.0136673804e-14
-1.52275937154e-13
-5.08488798543e-12
4.84196058397e-12
3.99043079064e-13
-2.3976414288e-14
-1.0690733854e-13
-3.06901423842e-13
-4.48179768608e-12
3.85538163822e-12
8.540176397e-13
1.8620717053e-13
-2.28595446138e-13
-1.48314129376e-13
-2.91251569375e-12
1.80861575479e-12
4.06892086342e-13
-1.53692126833e-13
-1.49425516795e-13
-1.5531862819e-13
4.5184039841e-13
3.13874867611e-13
4.50924539356e-13
3.15713719484e-13
1.1266593598e-13
9.51449005426e-14
-1.42335401899e-13
1.31651154975e-12
-1.4360036109e-12
-2.12339916906e-13
8.57211478135e-14
9.53121088353e-14
8.53232009587e-14
2.76049979574e-15
4.82255990474e-13
-3.05389565258e-12
3.99080217842e-12
-1.44430917986e-12
2.23861635532e-14
-3.93486246764e-14
2.12272939509e-13
-4.56859112737e-12
4.81805797419e-12
-5.02872225666e-13
8.04810639148e-14
-3.63167174423e-14
6.29320069341e-14
-4.94138006308e-12
4.99235565595e-12
-1.43878821894e-13
6.62879395278e-14
-2.82379021381e-14
8.85374944924e-17
-5.01408523955e-12
5.02928181967e-12
-3.3901225411e-14
4.68540099586e-14
1.26261289724e-14
-1.95729717955e-14
-5.0608575123e-12
5.09181344561e-12
-6.84790403886e-14
2.93442053339e-14
8.15165632582e-16
1.32578279462e-14
1.05265707069e-15
2.98633161676e-13
-7.2109414732e-13
5.73417482557e-12
3.29151147091e-13
-6.40864986897e-13
3.09603098015e-11
1.0380496309e-18
-8.50674256458e-13
-8.82165341774e-13
-6.54631339621e-13
-8.47837214069e-13
-6.47839563386e-13
-6.65300588157e-12
-6.67036968349e-12
-6.58249743803e-12
-6.58948791851e-12
-6.21579686856e-13
-8.65172809192e-13
-6.19888570621e-13
3.33661368369e-11
4.48697585882e-18
-3.66285268766e-13
-5.33631502285e-13
-4.51455407984e-13
-5.11726431963e-13
-4.41011138188e-13
-2.4443824213e-13
-3.66207023268e-13
-2.39625232532e-13
3.56823395135e-11
4.91950688004e-18
-8.82758663665e-14
-5.25670774533e-13
-6.50100827535e-13
-5.10388932762e-13
-6.36615326232e-13
1.63874075428e-14
-6.02925134197e-14
4.56418256337e-14
8.97235042716e-12
6.85636962322e-18
1.85887940834e-13
-1.25027987557e-12
-1.67144995883e-12
-1.21892434257e-12
-1.65816113924e-12
4.59234401831e-13
3.26962297051e-13
5.05013216096e-13
1.19077700924e-11
8.55743762128e-12
1.13583897949e-11
-2.89154587129e-12
-4.82143309621e-13
8.58349074864e-12
2.97827951559e-12
7.84261434319e-13
-8.33464122565e-14
-8.14539775272e-13
-1.38051838279e-12
6.25385235332e-13
1.52983138851e-12
1.23187317241e-13
4.14210977714e-11
-1.02169920418e-16
-1.35365921684e-12
3.99496973506e-12
4.18026543578e-12
3.95817732678e-12
3.95578872873e-12
-5.72568698068e-12
-2.20704353367e-11
-5.71756044025e-12
-2.17986328843e-11
-5.41354936045e-13
-1.97237033765e-12
-1.42595245841e-12
3.59399647138e-11
-6.67281355201e-17
-5.29350945618e-13
2.0327499212e-12
1.35798540101e-12
1.86370509769e-12
1.23158277179e-12
-4.87554078935e-13
-8.7524539617e-13
-7.62179452982e-13
3.5157738899e-11
-1.11010406448e-17
-2.80727504257e-13
4.78135187726e-13
2.61089695805e-13
4.12832795709e-13
2.49726801306e-13
-1.96975837112e-13
-4.14409426747e-13
-3.11432160068e-13
3.49702754606e-11
-2.16285458326e-18
-5.64411344518e-14
8.18047214952e-14
8.52619357996e-14
7.34956371736e-14
9.65313329133e-14
1.87211852952e-14
-1.11516251e-13
-2.46472625961e-14
8.82978023825e-12
6.15797817066e-18
5.94815490515e-14
6.29945760329e-14
1.30822539262e-13
6.25347686107e-14
1.45324057519e-13
9.30224991159e-12
7.97303274562e-12
8.37626952451e-12
1.13970655901e-13
4.36923070265e-14
9.96828528392e-14
-8.74569691971e-14
1.06608459519e-13
8.83039855408e-12
-2.66502222313e-14
6.88550008291e-15
2.98687556322e-13
3.2420363324e-18
5.66619527296e-12
-3.29152352518e-13
-6.35733718699e-13
3.09603108767e-11
-8.82171004366e-13
-8.65180428176e-13
-6.67037909161e-12
-6.65300555026e-12
-6.58949421946e-12
-6.58249366301e-12
-6.54637640361e-13
-8.47841526975e-13
-6.47841840714e-13
-6.19896157711e-13
-8.50663667398e-13
-6.21571967863e-13
3.33661152508e-11
-5.3363377397e-13
-3.66212294941e-13
-4.5146090569e-13
-5.11728321519e-13
-4.41011882165e-13
-2.39628807387e-13
-3.66278727748e-13
-2.4442985159e-13
3.56823084707e-11
-5.25673945608e-13
-6.02949725248e-14
-6.50107798181e-13
-5.10391260976e-13
-6.36615281562e-13
4.56412573426e-14
-8.82728708441e-14
1.6389876756e-14
1.19077599944e-11
-1.25028349217e-12
3.26959453461e-13
-1.67146569628e-12
-1.21892716646e-12
-1.65817259732e-12
5.05008762037e-13
1.85881746339e-13
4.5922219341e-13
8.97233111024e-12
1.13583843868e-11
8.55741943363e-12
-5.06803279305e-13
-1.3341875604e-18
1.45867934744e-11
-2.97827560795e-12
8.0605274397e-13
-6.80972219433e-13
2.75713283843e-18