/*--------------------------------*- C++ -*----------------------------------*\
  =========                 |
  \\      /  F ield         | OpenFOAM: The Open Source CFD Toolbox
   \\    /   O peration     | Website:  https://openfoam.org
    \\  /    A nd           | Version:  7
     \\/     M anipulation  |
\*---------------------------------------------------------------------------*/
FoamFile
{
    version     2.0;
    format      ascii;
    class       volVectorField;
    location    "5";
    object      U;
}
// * * * * * * * * * * * * * * * * * * * * * * * * * * * * * * * * * * * * * //

dimensions      [0 1 -1 0 0 0 0];

internalField   nonuniform List<vector> 
5218
(
(0.0394183451097 0.00642168883391 0.0061181227343)
(0.0287231306207 0.00466714390122 0.00215811571033)
(0.0200160299037 0.00118058875892 0.000654488388175)
(0.0165285064402 0.00106369027249 3.8929428592e-05)
(0.0141758155398 0.00275109744645 -0.000489539978282)
(0.00911308984919 0.00705056140984 -0.00120355779496)
(0.001969946782 -0.00363784213134 0.000359250606998)
(0.0100319845536 -0.00173909285874 -0.000122547203664)
(0.0130289758953 -0.000114028275668 -0.000113681049318)
(0.0139522185087 0.000118388570584 -0.000100293208226)
(0.0143153171508 -8.90918455561e-06 -4.54845935189e-05)
(0.0147874523212 -0.000364571511359 0.000225745936397)
(0.0388314453652 0.00135035373377 0.00600434058731)
(0.0313309578056 0.00353707793099 0.00258170469117)
(0.0268473592092 0.00175621653893 0.000961034596301)
(0.0255648253842 0.00191476169863 0.000247862852197)
(0.0281425844775 0.00556005743949 -0.000579102999806)
(0.0387066519302 0.0202896401879 -0.00334902986616)
(0.016055399641 0.022077938614 -0.000512050005551)
(0.0310523162309 -0.025611915045 0.00370792750517)
(0.0271101490708 -0.00627970404953 0.000883161107314)
(0.0224802946833 -0.000549750883546 0.00068283193354)
(0.021411992322 0.000282044981331 0.000274542211892)
(0.0215281630084 6.13975065047e-05 2.74592685953e-05)
(0.0216811474593 -0.000340267414198 0.000203774846597)
(0.0387460165777 -0.000162160505772 0.00601979831753)
(0.0309824028946 -0.00122196346596 0.00255108515694)
(0.0276126972371 -0.000644789610241 0.000921456577046)
(0.0274666723424 -0.000756631166742 0.000211141486462)
(0.0335800269059 -0.00251058549703 -0.000729632127485)
(0.0605124193449 -0.0108835228072 -0.00286235060262)
(0.16556076524 -0.0703482685148 -0.00498362066305)
(0.307562639656 -0.00700925595217 -0.000525379396913)
(0.278772772187 0.0123335370219 0.0092369689921)
(0.0794415722843 0.0267526286669 0.00403197810256)
(0.0378434737663 0.00405047782372 0.00154898506628)
(0.0248413704906 0.000352430229279 0.000997899870842)
(0.0225496555786 -0.000120403054187 0.000409396042216)
(0.0226251936351 -4.45391625562e-05 8.17928415704e-05)
(0.0226930193309 8.95728211023e-05 0.000264812827155)
(0.0389020642446 -0.00198213168149 0.00596738147339)
(0.031325472917 -0.00502243350025 0.00240653096436)
(0.0247963419792 -0.00210506620141 0.000828071725562)
(0.0219854090685 -0.00205213048248 0.000100974345493)
(0.0213379526803 -0.00519324368135 -0.000595919486692)
(0.0212580647853 -0.0145069618962 -0.00191576885119)
(0.00455539180211 -0.0086202426671 -0.000235881060101)
(0.00937421779795 0.0107064138545 0.000888430779664)
(0.0174905182366 0.00417420484237 9.52084209582e-05)
(0.0183834892598 0.000366889504548 0.000137301376969)
(0.0186303625659 -0.000264115341702 -1.85389969296e-06)
(0.0189111400713 -1.83540297542e-05 -3.81398089122e-05)
(0.0191942992776 0.000496687637662 0.000278632644536)
(0.0389376562206 -0.00906353017473 0.00620635183363)
(0.0136720001354 -0.00208073450799 0.000414431617139)
(0.007800088292 -0.000286578745815 0.000152317704807)
(0.00626829279911 -0.000214113762696 -3.57505797173e-06)
(0.00529590207845 -0.000560466982367 -0.000192620833918)
(0.00292049217542 -0.00166154997432 -0.00054385162483)
(0.000408471841396 0.00105904569931 7.26135593188e-05)
(0.00372005832119 0.000503372452033 0.000106761090879)
(0.00506696139476 5.66314317191e-05 2.43293342767e-05)
(0.00529709953062 -6.49345314741e-06 -4.98348124684e-06)
(0.00533491971351 7.88284456169e-06 -9.84832451562e-06)
(0.00568057458469 0.000139810858153 0.000101539606481)
(0.0533216452281 0.015454708842 0.00806678341262)
(0.0572212157633 0.00954254774922 0.00834931586983)
(0.0513641415854 0.00360432378355 0.0030994967508)
(0.0463556254938 0.00284073467351 0.000122362560817)
(0.0397662013996 0.00600111797869 -0.00252991867337)
(0.0229655136547 0.012357702603 -0.00520951739869)
(0.0121470440752 -0.0101529879926 0.00257769104313)
(0.0363665555361 -0.00795600889837 3.10946733646e-05)
(0.0433668707489 -0.0015925447895 -0.000366089691618)
(0.0443657288802 4.60059554438e-05 -0.000440174678648)
(0.0446342405731 4.33824676828e-05 -0.000545947501019)
(0.0462134739971 -0.000803715735546 -0.000477310808474)
(0.0531149714755 0.00579102677259 0.00874498642817)
(0.0779615203234 0.00617531596119 0.00906115395653)
(0.0872791617719 0.0041691821561 0.00452889451895)
(0.0911251857701 0.00461484130551 0.000886230588449)
(0.0964513500099 0.0130968913202 -0.00403788741627)
(0.0904464884767 0.0352772909362 -0.0101846489926)
(0.0412603517917 0.0465573642496 -0.00868828585699)
(0.131660919721 -0.0636042296887 0.0147859221537)
(0.113882987772 -0.0240566345325 0.00794567578094)
(0.0966675468174 -0.00648681837619 0.00399694386932)
(0.0874083326452 -0.00142787862792 0.00130660437452)
(0.0866487365679 -0.000832255021008 -0.000637316452842)
(0.0787611833464 -0.00122874669239 -0.000708486840726)
(0.0528069563771 -0.00181927668734 0.00873945050624)
(0.0779615350168 -0.00617536971112 0.00906113674838)
(0.0872791852817 -0.00416923485585 0.00452888770472)
(0.091125180119 -0.00461485144614 0.000886223465649)
(0.0964513414324 -0.0130967950553 -0.00403788970069)
(0.132134219737 -0.0177289530055 -0.0104252369707)
(0.237921145901 -0.104250886436 -0.0163138986411)
(0.52763236056 -0.0243423618162 -0.000689063231924)
(0.502566962631 0.0183930017231 0.0103854695451)
(0.131661058309 0.0636039920565 0.0147861037922)
(0.113883018098 0.0240567210251 0.00794578144063)
(0.0966675691811 0.00648710051489 0.00399699200897)
(0.0874083462029 0.00142825379721 0.00130661211018)
(0.0866487589958 0.000832762602152 -0.000637383464049)
(0.0839254067383 0.000625927695203 -0.000334186854573)
(0.0532915064643 -0.00995285986892 0.00858564989289)
(0.0679783601413 -0.0121322659552 0.00976653019214)
(0.0681712920025 -0.00587244148544 0.00420212684217)
(0.0655792867774 -0.00478415784484 0.000541392915091)
(0.0623951016895 -0.0102074926648 -0.00314401191623)
(0.0514920986402 -0.0250054136047 -0.00787990296454)
(0.0134449946735 -0.0195385462379 -0.00447177626307)
(0.039370461807 0.02552571909 0.00580418619435)
(0.0655290912366 0.0185688329047 0.00173987477966)
(0.0659245774005 0.00467014860641 0.000991711726406)
(0.0634278264904 0.000295497920978 0.000256691015066)
(0.0634047621786 0.00014481843913 -0.000464227905871)
(0.0652546202619 0.00188633235361 -0.000642933610305)
(0.0499129247419 -0.01359079757 0.00429954732116)
(0.028570183131 -0.00147153478766 0.00478616677352)
(0.0223495875948 -0.000622322286634 0.0012204424825)
(0.0191811441336 -0.000422452259185 -0.000113778378143)
(0.0151274924798 -0.000945828295763 -0.00131512037879)
(0.0111771637256 -0.00465044142072 -0.00278435662412)
(0.00354142086713 0.00382455991786 0.00077259718042)
(0.0120383630422 0.000791175376101 -0.000507576087411)
(0.0167865814026 -8.06367057912e-05 -0.000632860561841)
(0.0178547125222 -7.14256305895e-05 -0.000439531742784)
(0.01781417035 -5.82165751472e-05 -0.000411228851813)
(0.0252391028622 -0.000423721467729 -0.000358367833393)
(0.0525573510665 0.0151436286701 0.00146033448607)
(0.0579659635286 0.00928299612493 0.00212584750698)
(0.0564147768614 0.0037376247399 0.000901804350678)
(0.052714328659 0.00298432395948 -3.74610641441e-05)
(0.0447793197415 0.00617345253949 -0.000871579184404)
(0.0240279739227 0.0118897457621 -0.00149801185451)
(0.0130223379228 -0.0105894242315 0.000833503387907)
(0.0426052630509 -0.00961444975935 0.000349516593665)
(0.0517122548463 -0.00218212255316 4.23534885567e-05)
(0.0530250289483 -6.221699409e-05 -9.19762732976e-05)
(0.0531770959829 0.000172515136336 -0.000197875741723)
(0.0542643500505 -0.000615573440843 -0.000248343994763)
(0.0523711520687 0.00584196271467 0.00166470084831)
(0.0811403861027 0.00626103335689 0.000259112174366)
(0.0950915468123 0.00436517950641 0.000119873526509)
(0.100828110393 0.00464371262834 -3.87309428877e-05)
(0.104685351445 0.0131717895304 -0.000158402570035)
(0.0973912438157 0.0359460848552 -0.00264354461098)
(0.0416582960192 0.0464137934614 -0.00256799793768)
(0.135355153782 -0.0654079722351 0.00021982127368)
(0.127142814666 -0.0264759512257 0.000167038017733)
(0.112053889424 -0.00769001659362 0.000142032481481)
(0.101375901753 -0.00183643339647 8.61606433325e-05)
(0.0999837288052 -0.00106839094557 7.23888545992e-06)
(0.0960980039665 -0.00103749942036 -0.000323892611593)
(0.0520162450347 -0.0018399931273 0.00166200350207)
(0.0811404207857 -0.00626115234151 0.000259105939013)
(0.0950915179946 -0.00436531658839 0.000119870361129)
(0.100828094278 -0.00464381141022 -3.87418195139e-05)
(0.104685311352 -0.0131717319557 -0.000158408205537)
(0.14185402783 -0.0181290858693 -0.00273609130617)
(0.24053293019 -0.105029317456 -0.00364729788995)
(0.53378987663 -0.024976156647 -0.000423111690719)
(0.506246889166 0.0182974766863 0.00146783453532)
(0.135355276724 0.0654078533368 0.000219798646055)
(0.127142877286 0.026476221326 0.000167036352593)
(0.112054007479 0.0076904193538 0.000142031744645)
(0.101375954007 0.00183685677488 8.61556214409e-05)
(0.0999836822606 0.00106881178236 7.21602564547e-06)
(0.102896804727 0.000624588695461 -0.000270823651569)
(0.0525772949643 -0.00990339955329 0.00162213033778)
(0.0702574029356 -0.01222384568 0.00258594139204)
(0.0760546922601 -0.00620705125871 0.00124422061243)
(0.0755961091121 -0.00512008929434 8.94069112529e-05)
(0.0711600938399 -0.0107578980074 -0.0010294678433)
(0.0550693383521 -0.0248079749172 -0.00217476393562)
(0.0133881610512 -0.0191031949607 -0.00135378347079)
(0.0419659027182 0.0253885713962 0.00149474235672)
(0.0766760110582 0.0218954227686 0.000795886319987)
(0.0795818967074 0.00645093453615 0.000375672962373)
(0.0769311658806 0.000670829964413 8.77480074326e-05)
(0.076833957823 -7.26938078183e-06 -0.000171409918466)
(0.0784357082969 0.00172054395624 -0.00032850991786)
(0.0496232113986 -0.0133033528338 0.000831936800375)
(0.0282272837276 -0.00131430867121 0.0010166254349)
(0.0245379662839 -0.00073167608819 0.000339672088201)
(0.0217606476123 -0.000459044322333 -8.07035794511e-05)
(0.01684548989 -0.000959241984496 -0.000443572767446)
(0.0117324780867 -0.00470505031818 -0.00120547370202)
(0.00349288867831 0.00412157439412 0.000572231767857)
(0.0143928934935 0.000955474812935 3.420343958e-05)
(0.020174405359 -0.000116651738872 -9.34710048331e-05)
(0.0213441176302 -7.8792857591e-05 -0.000105136070181)
(0.0210090415969 -8.91131118743e-05 -0.000127892568126)
(0.0296542754854 -0.00102763716818 -0.000241786550872)
(0.0527941522462 0.0150184679087 -0.00400359880657)
(0.0581103481378 0.00936189080889 -0.00523372602219)
(0.0554950424745 0.00382828771591 -0.00238922867949)
(0.0513154127392 0.00306245719784 -0.00031667441437)
(0.0436984448029 0.00631636110052 0.00162793501137)
(0.0239674292639 0.0122834002314 0.00350373133503)
(0.0129177684816 -0.0105830498294 -0.00149167490067)
(0.0410555925011 -0.00939895524921 -0.000211020980399)
(0.0494887645229 -0.00212076325732 0.000259809708663)
(0.0507044207279 -5.84659891465e-05 0.000319746390837)
(0.0509038585938 0.000164754717375 0.000347738325156)
(0.0521222204585 -0.000531416309861 0.000257433759632)
(0.0526038595421 0.00573735466235 -0.0047307934675)
(0.0777346817229 0.00606762315876 -0.00863314344745)
(0.0871813141173 0.0041579515201 -0.00436085474667)
(0.0911299842729 0.00464153462619 -0.000965596626481)
(0.0964777535081 0.0131521923575 0.00377049273448)
(0.0951111388046 0.0361707659019 0.00717225362067)
(0.041501813496 0.0465694286934 0.00421815020434)
(0.131989478731 -0.0639067499752 -0.0147517527844)
(0.113955785779 -0.0241827481246 -0.00783016013488)
(0.0967712209144 -0.00654400476408 -0.00384670014662)
(0.0875121423571 -0.00145330566005 -0.00119499208193)
(0.0867447257926 -0.000837007731237 0.000642483722272)
(0.0901400796846 -0.000837526872249 0.000824959265028)
(0.0522637482508 -0.00180746347816 -0.0047686426627)
(0.0777346860902 -0.00606776973902 -0.00863315274228)
(0.0871813007987 -0.00415808910772 -0.00436087170389)
(0.0911299652054 -0.00464162511604 -0.000965624425506)
(0.0964776861985 -0.0131521859664 0.00377042469149)
(0.138773864709 -0.0182031837323 0.00745120232318)
(0.240003599922 -0.104939012516 0.0101532133096)
(0.533022112167 -0.024917246163 0.000566354299005)
(0.5061730116 0.0183087937523 -0.00291692113435)
(0.131989567416 0.0639064871647 -0.0147519504392)
(0.113955931212 0.0241827354597 -0.0078303352585)
(0.096771293656 0.00654417760178 -0.00384680336323)
(0.0875121896853 0.00145357088539 -0.00119504319109)
(0.0867447244603 0.000837292588248 0.000642450501802)
(0.096296869378 0.000513471477061 0.000654391153544)
(0.0528231190202 -0.00975913224371 -0.00453011251652)
(0.0699499016592 -0.012053683014 -0.00647680569003)
(0.074040432251 -0.00614291302953 -0.00325549895353)
(0.0728232456973 -0.00517594348906 -0.000674456342026)
(0.0687759436266 -0.0109774416344 0.00210902002755)
(0.0542751883062 -0.025357953549 0.00530765219792)
(0.0133985117252 -0.0192410371668 0.00215332896167)
(0.0415998209942 0.0256597793862 -0.00410365427881)
(0.0732240500418 0.0214537895913 -0.00176472560689)
(0.0751529133665 0.00615175949097 -0.000862364301954)
(0.0726488462592 0.000567735341101 -0.000303230326266)
(0.0726621233082 -4.40101769134e-05 0.000287964648489)
(0.0744782132907 0.00137474310568 0.000405894202244)
(0.0496533951179 -0.0131813105474 -0.00123397585589)
(0.0286561318557 -0.00136949486938 -0.00293887048779)
(0.024467890931 -0.000760989558255 -0.00114241088862)
(0.0214409734509 -0.00048243781805 -9.37883675175e-05)
(0.0166698967461 -0.00100283375162 0.000785274756519)
(0.0117769005726 -0.00487638255286 0.00165926795621)
(0.00345837152487 0.00416222822745 -0.000414061904456)
(0.014003523644 0.000975869507569 0.000361099679639)
(0.019471661914 -8.59557861114e-05 0.000480308544407)
(0.0205936737679 -7.36655743332e-05 0.000330975799192)
(0.0203350512122 -9.08653089932e-05 0.000247576726519)
(0.0292302697533 -0.00104240241691 0.000189215689176)
(0.0541810986907 0.0145276785782 -0.0135728316276)
(0.0507012175559 0.0083825225821 -0.0080244745569)
(0.0423823434241 0.00317460927051 -0.00260542529846)
(0.0370730530962 0.00254340333012 -0.000251218275606)
(0.0318946815788 0.00553195751869 0.00180395693366)
(0.0194915009048 0.0120593127333 0.00445286383211)
(0.0088097085037 -0.00881405648398 -0.00170347253345)
(0.0273241657434 -0.00580331815984 0.000506810917052)
(0.032804051907 -0.000935353357903 0.000530168189984)
(0.0338324732665 0.000189340351514 0.000409918820561)
(0.0341824410291 0.00010876501594 0.000324343373437)
(0.0354040239069 -0.000369347640998 0.00025428427583)
(0.0530946122695 0.0048442564816 -0.0137536867428)
(0.0597795219487 0.00663773776335 -0.0102775883984)
(0.0594711606137 0.00382659703938 -0.00402880777214)
(0.0591204645069 0.00386901052697 -0.0010543882963)
(0.0632145942981 0.0099014971545 0.00185277032653)
(0.0745540425157 0.0326135510912 0.0101915219809)
(0.0390205897569 0.0459839635654 0.00929393146441)
(0.0739688243374 -0.0494831180911 -0.0124450584222)
(0.0723022914093 -0.017607130435 -0.00119285040159)
(0.0595889122805 -0.00317184938501 -0.00122806719059)
(0.0543676413607 8.43261367099e-05 -0.000702850527099)
(0.0540870768177 -3.67123502223e-06 0.000115179168858)
(0.0556900409139 -0.000667056472918 0.000842534027817)
(0.0527946670828 -0.00151022488905 -0.0138129717148)
(0.0598832044335 -0.00257675856913 -0.0103662732168)
(0.0616317591989 -0.00159081360277 -0.00397672756553)
(0.0633676947592 -0.00163077757015 -0.00075926237721)
(0.0729046117004 -0.00451777947265 0.00329875697078)
(0.109475258578 -0.0167522587711 0.0104692442894)
(0.225233932637 -0.0997311712818 0.0200276120694)
(0.522410047752 -0.0236841607675 0.000156083809367)
(0.496240938044 0.0183929941687 -0.0152325867658)
(0.165143111762 0.0505806947072 -0.0224335585232)
(0.094756526483 0.0112121112145 -0.00632780794804)
(0.0660151318087 0.00192373315184 -0.0027360838078)
(0.0577996403855 4.80620029777e-06 -0.00129296077097)
(0.0572734940034 1.34687447528e-05 -0.000188557701539)
(0.0588664674493 0.000212701872681 0.000555550476383)
(0.0535626249592 -0.00867476024508 -0.0135969759149)
(0.0578246502364 -0.00917283420244 -0.00909510789174)
(0.0535896200212 -0.00464784186908 -0.00331878373144)
(0.0500844348692 -0.00426343317187 -0.000531702146413)
(0.0480742493465 -0.00959035279728 0.00216776203122)
(0.0429087249928 -0.0240690791005 0.00712591117639)
(0.0130093360952 -0.019623506503 0.00465844343544)
(0.0275989736424 0.0232059153543 -0.00455168560703)
(0.0467209525668 0.0122300545951 -0.000519035523889)
(0.0472045110602 0.00212099538643 -0.000381344066305)
(0.0462301872254 -0.000306028589433 -6.1231665404e-06)
(0.0464599438375 -6.76857461079e-05 0.000289948307454)
(0.0479935416325 0.000872527981914 0.000412290507614)
(0.0502494261279 -0.0128125681806 -0.00588079411141)
(0.0285469893536 -0.00208795904857 -0.00502075556505)
(0.0200875191385 -0.000673381629484 -0.00119598958153)
(0.0164420135957 -0.000430930453 -8.30830468472e-05)
(0.0129620076411 -0.000945433956929 0.000817534862357)
(0.0105688869323 -0.00498387940836 0.00238197742922)
(0.00302492161985 0.00383695849546 -0.000414011721562)
(0.00959125200988 0.000588388523502 0.000815863550418)
(0.0134350950896 -9.86267568211e-05 0.000653600936246)
(0.0144370635848 -9.07545448913e-05 0.000353649679958)
(0.0145929328284 -4.88115379198e-05 0.000239503481933)
(0.0149414622467 -0.000247249301919 0.000371658227288)
(0.0502494253197 0.0128125542122 -0.00588079013484)
(0.0389452373305 0.00456794752429 -0.00806775418286)
(0.0389213067525 0.00880226943561 -0.00623946740769)
(0.0175043409997 0.00306450411649 -0.000710791961034)
(0.0285469448805 0.0020879453879 -0.00502074860892)
(0.0233370642059 0.0011482650312 -0.00242804656859)
(0.0136110199228 0.00186472075389 -0.000402797084412)
(0.00883188458579 0.000302762469333 -0.000121255006423)
(0.020087492353 0.000673360193627 -0.00119597630357)
(0.0179724426925 0.000447610943676 -0.000505711412901)
(0.00805417478314 0.000336320578814 -0.000121257961809)
(0.00679162595307 0.000187431089169 5.74340054057e-06)
(0.0164419829576 0.000430937752087 -8.30996762174e-05)
(0.0149339416586 0.000580985639606 0.000329470880744)
(0.00648486801688 0.000275231646305 -9.54308742188e-07)
(0.00574709353758 0.000463061200263 0.000157783297874)
(0.0129619870662 0.000945444538791 0.00081757629052)
(0.00994750614291 0.00142171227122 0.00142329459685)
(0.00543478483133 0.000678839295759 0.000184994583028)
(0.00398503924501 0.00141313394192 0.000449487239917)
(0.0105687842343 0.00498387542577 0.00238199557545)
(0.00300678894866 0.00180304618933 0.000511138696777)
(0.000668111375312 -0.0013794734104 -0.000597143648451)
(-0.000377192367523 -0.000118683809234 -7.24457632319e-05)
(0.00302483562806 -0.00383688469063 -0.000413732198628)
(0.00527423915226 -0.00103697923742 0.000776954214041)
(0.000356691101119 -0.00111946426748 -5.16235120472e-05)
(0.0031083173988 -0.000544219523871 -6.96981912126e-05)
(0.00959116817322 -0.00058830365199 0.000815824278299)
(0.0120461623081 -0.000168328101138 0.000857580551853)
(0.00384583480035 -0.000588693984238 -0.000108565198808)
(0.00511771528292 6.95851504284e-05 2.05639693637e-05)
(0.0134350320886 9.86736650588e-05 0.000653572100498)
(0.0141095961384 0.000113549388248 0.000517319323666)
(0.00526054664063 -5.71971430049e-05 -2.25326519411e-05)
(0.00551300251776 0.000124206620996 3.50187376182e-05)
(0.0144369326104 9.08052673717e-05 0.000353638399589)
(0.0145476885856 5.68238005647e-05 0.000258618992307)
(0.00551140028128 2.92537413516e-05 4.18107042435e-06)
(0.00551598077512 6.24504152515e-05 3.06700744371e-05)
(0.0145928751847 4.88693950557e-05 0.000239462470773)
(0.014700872165 9.20408277157e-05 0.000323922247066)
(0.00551530167128 1.83943093521e-05 2.47985564083e-06)
(0.00571425980022 -1.43752080142e-05 -1.98247200508e-05)
(0.0149414330903 0.000247291934512 0.00037163713534)
(0.0236593828127 0.000110526766477 -8.64107493803e-05)
(0.00583812975179 -7.9282572919e-05 -9.94006149353e-05)
(0.0059491565118 -9.9468534854e-05 -0.000113210408973)
(0.00208966487135 0.00297645075071 0.00150214690691)
(0.0429086593235 0.0240691493889 0.0071259009598)
(0.0318483161868 0.0320944416778 0.00737618601238)
(0.00924614058029 0.007186462044 0.00117146961638)
(0.000884716378113 0.00125105196715 0.00012876571662)
(0.0213455821434 0.0146578988895 0.00189078887423)
(0.0114654009765 0.0131301246211 0.00217203148332)
(0.0130093123842 0.019623514627 0.00465847663286)
(0.00456112447346 0.00863507563498 0.000232356164682)
(0.000974933636199 -0.00130395808097 -0.0022070067665)
(0.0042784869579 -0.00634871236527 -0.00597130035869)
(0.000414822507935 -0.00075962130125 -5.09929675459e-05)
(0.00255835285173 -0.00610511912766 -0.000124737839385)
(0.225233943146 0.0997312084672 0.020027601544)
(0.514880452394 0.0698253469578 0.00584492629835)
(0.0160645118213 0.0220991510921 0.000502969952923)
(0.165528440935 0.0703477223315 0.0049631127299)
(0.304305613843 0.0293687685722 0.000340501603592)
(0.522409965156 0.0236841394886 0.000156038012657)
(0.536841109412 -0.000333371346323 -0.0101716490084)
(0.30743148742 0.00700560581215 0.00052164431885)
(0.300407980966 -0.0012052223166 -0.00268195991567)
(0.0296170321307 -0.0341443984099 -0.0172518135067)
(0.496240911812 -0.0183929776577 -0.0152326598462)
(0.231886576217 -0.0907737238128 -0.0329905319875)
(0.00691467838256 -0.0139920889386 -0.00109937568756)
(0.278755011264 -0.0123381157252 -0.00916559677925)
(0.128876892838 -0.0593947620934 -0.00637294149386)
(0.514880426121 -0.0698252940364 0.00584492758993)
(0.0390206029898 -0.0459838907967 0.00929394058046)
(0.165528458403 -0.0703477556291 0.00496312238584)
(0.304305632574 -0.0293687526196 0.000340516987204)
(0.0160645326537 -0.0220991577847 0.000502965693206)
(0.536841168992 0.000333400430288 -0.010171623864)
(0.307431429395 -0.00700560299796 0.000521642835674)
(0.300408067555 0.00120526746208 -0.00268197158587)
(0.231886569676 0.0907738970083 -0.0329905267542)
(0.0296171546619 0.0341446505235 -0.0172519781095)
(0.278755032831 0.0123382099679 -0.00916564870191)
(0.128876968102 0.0593945957653 -0.00637299312544)
(0.00691471386084 0.0139920596167 -0.00109944150205)
(0.0318483766978 -0.0320943665735 0.00737613428097)
(0.0194915314807 -0.0120592897538 0.00445287615711)
(0.00208965470748 -0.00297644005538 0.00150214614221)
(0.0213456096836 -0.0146578642749 0.00189076470037)
(0.0114653976505 -0.0131301044308 0.00217204049106)
(0.00924612201824 -0.00718644325517 0.00117146504687)
(0.000884715302568 -0.00125105067461 0.000128770081051)
(0.00456111622823 -0.00863510114738 0.000232353924318)
(0.00427851019556 0.00634852339787 -0.0059716176699)
(0.000974949382765 0.00130376920026 -0.00220722826375)
(0.00255839014519 0.00610507318223 -0.00012471347817)
(0.000414845939563 0.000759579949536 -5.0961316567e-05)
(0.0389452630361 -0.00456795846538 -0.00806777330241)
(0.0389213068768 -0.00880227797451 -0.0062394719416)
(0.0175043421022 -0.00306451184279 -0.000710784784867)
(0.0233370929042 -0.00114828119786 -0.00242806545493)
(0.0136110078663 -0.00186472013576 -0.000402792354202)
(0.00883189142654 -0.000302783471676 -0.00012125276957)
(0.0179724683304 -0.00044760735894 -0.000505730405269)
(0.00805418819047 -0.000336330969492 -0.000121262199195)
(0.00679165627433 -0.00018745068149 5.74003812487e-06)
(0.0149339627009 -0.000580971331131 0.000329432284191)
(0.00648491036932 -0.000275238672874 -9.580936103e-07)
(0.00574710734081 -0.000463073072509 0.000157786659523)
(0.00994752255572 -0.00142171083262 0.00142326995812)
(0.00543480772777 -0.000678839614227 0.000185005219861)
(0.00398508302419 -0.00141313328016 0.000449488450554)
(0.00300681627688 -0.00180304420291 0.000511153001031)
(0.000668184258935 0.00137938910774 -0.000597417282187)
(-0.000376952674109 0.000118555181383 -7.25251903336e-05)
(0.0052743851116 0.00103699520277 0.000776848109104)
(0.000356792802929 0.00111972251334 -5.15259747867e-05)
(0.00310834826719 0.000544155869303 -6.97260975313e-05)
(0.0120462382067 0.000168365309479 0.000857602117294)
(0.00384589781626 0.000588628842993 -0.000108640719368)
(0.00511771539787 -6.95627528156e-05 2.05476707571e-05)
(0.0141096960652 -0.00011354016445 0.000517329899023)
(0.005260568816 5.72068963053e-05 -2.25227556874e-05)
(0.00551302858168 -0.000124185576604 3.50139473818e-05)
(0.0145477915444 -5.67795998719e-05 0.000258602603084)
(0.00551144620706 -2.92542114036e-05 4.17106512318e-06)
(0.00551600844965 -6.24321235262e-05 3.06627159599e-05)
(0.0147008813853 -9.19597801362e-05 0.00032394394544)
(0.00551533254838 -1.83680106028e-05 2.45533388053e-06)
(0.00571425096177 1.44406446801e-05 -1.98310043579e-05)
(0.0236592793023 -0.000110456014596 -8.64375016105e-05)
(0.00583813209765 7.93440631795e-05 -9.94197317279e-05)
(0.00594912444581 9.94896928023e-05 -0.000113212253934)
(0.0389376533347 0.00906353548773 0.00620634729635)
(0.017690829067 0.00348974593122 0.000698603272695)
(0.0501072303462 0.0135565857647 0.00624823853982)
(0.0408819352798 0.00733285012936 0.0079915631414)
(0.013672020725 0.00208070694956 0.00041442886177)
(0.00860647373586 0.000273969390364 0.000213493339653)
(0.0364012374271 0.00482873381423 0.00677070630741)
(0.0277913061144 0.00128038051225 0.0024270047253)
(0.00780010352124 0.000286546492209 0.000152313339307)
(0.00655261757927 0.000132888579573 2.99773058841e-05)
(0.0262339495552 0.00100989000733 0.0017451457446)
(0.0233075428397 0.000628865854381 0.000360446564324)
(0.00626825050312 0.000214117137638 -3.58048850595e-06)
(0.00559149082546 0.000368484019078 -0.000144897931967)
(0.022471684086 0.000742765348077 7.76098577316e-05)
(0.020103017023 0.00123423378949 -0.00084427286341)
(0.00529585501814 0.000560499280533 -0.000192621523273)
(0.0038647658684 0.00126079468071 -0.000476701859015)
(0.0189231278642 0.00172606647954 -0.00123562577122)
(0.0136032205653 0.00340569594811 -0.00219793921625)
(0.00292042834192 0.00166160611726 -0.000543844423571)
(0.0103162497485 0.00440723077033 -0.00247646281005)
(-0.000333075234579 -0.00012505236747 0.000103341319857)
(0.000628550812676 -0.00117655563395 0.000771757763342)
(0.000408473065326 -0.00105906103088 7.26420480912e-05)
(0.00301555227904 -0.000436250928264 7.53695955184e-05)
(0.00302979099606 -0.00348419073071 0.000580972365053)
(0.0121753509057 -0.00277123597167 -0.000218963867063)
(0.00372016391083 -0.000503430113919 0.000106738231832)
(0.00493255568286 8.33307385744e-05 3.53833216766e-06)
(0.0148345516014 -0.0022120422139 -0.000660622450722)
(0.0194199603583 -0.000419870865905 -0.000449986092249)
(0.00506689438436 -5.65777539148e-05 2.4286304304e-05)
(0.0052959866693 9.70722937297e-05 -1.02658886e-05)
(0.0200080303811 -0.000235491624119 -0.000583007500442)
(0.0209251149054 0.0002271589696 -0.00032194794258)
(0.0052970511093 6.59161042616e-06 -4.9576087532e-06)
(0.00532061127049 3.46107564112e-05 -1.61152173553e-05)
(0.020909386856 0.000154310305298 -0.00036115894108)
(0.0209239281746 0.000177476664266 -0.000296368577679)
(0.00533492171712 -7.79766728424e-06 -9.81758230716e-06)
(0.00556519759905 -5.79211964574e-05 4.4316592523e-05)
(0.0209258246288 9.38296771299e-05 -0.00036714627007)
(0.0216271068817 0.000108054835283 -0.000380325020653)
(0.00568060494714 -0.000139733141767 0.000101544889674)
(0.00584711722552 -0.000188754846568 9.43131234966e-05)
(0.0222178299874 0.000153730101133 -0.000174734504837)
(0.0233147784357 -0.000251910907252 -1.16067475738e-05)
(0.00087266406443 0.00123536463328 -0.000133415082191)
(0.0212580280648 0.0145070704621 -0.00191577671033)
(0.0114447292348 0.0130857792464 -0.00217898602008)
(0.0191994749135 0.0117992044237 -0.00461004453023)
(0.00206256778794 0.00293037761781 -0.00153260947387)
(0.0427355929647 0.0237786543863 -0.00731308191404)
(0.0317889684821 0.0319393119088 -0.00749553105088)
(0.004555383337 0.00862022117206 -0.000235884777385)
(0.0129905663794 0.019571787842 -0.00470013371041)
(0.000491170747601 -0.000818204783501 0.000111097041181)
(0.00305047982226 -0.0060234350323 2.07115998455e-05)
(0.0029807591781 -0.00352792621761 0.00167886471909)
(0.0151382515656 -0.0182407368921 0.00986350150982)
(0.165560802762 0.0703483599763 -0.00498358845743)
(0.304427934921 0.0293825132864 -0.000344649084528)
(0.0389991358198 0.0459100903298 -0.00936976005462)
(0.225266744654 0.0997119733047 -0.0201364542569)
(0.515039101571 0.069847509779 -0.00591680113713)
(0.307562671478 0.00700927516902 -0.000525370760194)
(0.30049289073 -0.00120711339868 0.00271408841522)
(0.522599271367 0.0236938939211 -0.000227341447006)
(0.537260673141 -0.000317119836751 0.0099838675974)
(0.00721168125658 -0.0137760282859 0.000835881789832)
(0.278772819103 -0.0123335829161 0.00923693541922)
(0.128477512136 -0.0585340553895 0.00693956459303)
(0.0324364245695 -0.0301243393098 0.0192967449984)
(0.497023875788 -0.0183858033458 0.0149435137298)
(0.235369512907 -0.0905797616072 0.0335771090017)
(0.304427983375 -0.0293824682216 -0.000344651428793)
(0.0160554325157 -0.0220779008177 -0.000512038941377)
(0.225266767649 -0.0997118304375 -0.0201364802845)
(0.515039198864 -0.0698474325413 -0.00591680361947)
(0.0389991469343 -0.0459099532254 -0.00936980926596)
(0.300492889096 0.0012071227551 0.00271407125491)
(0.522599371324 -0.0236938631841 -0.000227345768185)
(0.537260677722 0.000317108688774 0.00998385684036)
(0.128477464034 0.0585339282047 0.00693952365414)
(0.00721172142581 0.0137760777163 0.000835877269934)
(0.49702383819 0.0183857334323 0.0149434552342)