/*--------------------------------*- C++ -*----------------------------------*\
  =========                 |
  \\      /  F ield         | OpenFOAM: The Open Source CFD Toolbox
   \\    /   O peration     | Website:  https://openfoam.org
    \\  /    A nd           | Version:  7
     \\/     M anipulation  |
\*---------------------------------------------------------------------------*/
FoamFile
{
    version     2.0;
    format      ascii;
    class       volScalarField;
    location    "4";
    object      p;
}
// * * * * * * * * * * * * * * * * * * * * * * * * * * * * * * * * * * * * * //

dimensions      [0 2 -2 0 0 0 0];

internalField   nonuniform List<scalar> 
5218
(
1.80020790091
1.76943617836
1.7584135924
1.75093110659
1.74511366652
1.7408303314
0.0232164200013
0.0167990889767
0.011448083076
0.00773034972056
0.00482669171213
0.00232972296656
1.79286563465
1.76763564989
1.75769557455
1.75034337872
1.74329062075
1.73352430935
1.71938775572
0.0318503126348
0.0152087892365
0.00990321289808
0.00711253500988
0.00468629276129
0.00234893206839
1.79158246237
1.76722347207
1.75754542359
1.75022103081
1.74245900007
1.72787087302
1.6776707133
1.13630891013
0.294579631824
0.0436576770012
0.0145323894106
0.00907126633908
0.00677852031122
0.00459126284408
0.00230419302138
1.79384180412
1.76851675472
1.75808413026
1.75066264379
1.7442991169
1.73780920954
1.72547325165
0.0263542195018
0.0163084777845
0.0108719272158
0.00749748707746
0.00475948300011
0.00231775003268
1.80631702129
1.77181010928
1.75955741547
1.75177538709
1.74587485991
1.74193447466
0.0227485034282
0.0178293282302
0.012255010648
0.00818288293168
0.00517576867073
0.00256063594844
1.77732917808
1.76773016044
1.75769443976
1.75081027734
1.74573208313
1.74278224261
0.0241591931265
0.0160862682855
0.0109864891113
0.00769960629694
0.00488740543578
0.002101172331
1.77210118607
1.76228860021
1.7551298064
1.74859299438
1.74230293328
1.73763951248
1.72264720771
0.0304289981005
0.0130028336476
0.00663227577396
0.00540180131359
0.00425579886998
0.00291103687179
1.771027953
1.76228864056
1.75512982829
1.74859298665
1.74230284358
1.73204379947
1.68225561016
1.1302180659
0.245388367384
0.0304288287465
0.0130026779467
0.00663215757961
0.00540169083349
0.00425568542241
0.0026948675764
1.77444151495
1.76672749621
1.75740234364
1.75055270173
1.74491888936
1.74011195655
1.73097237993
0.0284962941804
0.0154957432631
0.00955903231441
0.00714003889485
0.00487488239956
0.00221530160624
1.78489443349
1.76749277726
1.75784628251
1.75092090282
1.74611702979
1.7434567919
0.0229224857295
0.0166327831493
0.0116714749764
0.0077870988783
0.00482426731585
0.00215787236948
1.7751052725
1.76668435909
1.75723314423
1.75076984246
1.74614351773
1.74408898422
0.0244138657493
0.0156464290534
0.0106222972417
0.00763897722332
0.00493374784854
0.00205537929209
1.76971492042
1.7618554652
1.75503774078
1.74868590929
1.74273145691
1.73913823405
1.72612407538
0.0303012816771
0.0128129151535
0.00603116546285
0.00505438240105
0.00421792779251
0.00272276902831
1.76854552366
1.7618555098
1.75503778537
1.74868592006
1.74273139684
1.73329938624
1.68480495914
1.12732078425
0.236882094018
0.030301158546
0.0128127888172
0.00603106024591
0.00505428799865
0.00421782939381
0.00231285566329
1.77219500401
1.76570030446
1.75700734484
1.75054498318
1.74537733922
1.74155707298
1.7342321442
0.0288436042849
0.0150020983194
0.0086975304982
0.00680013028912
0.0048645741558
0.00214486677131
1.78205468813
1.7664740569
1.75749261978
1.75089835113
1.74645923789
1.74451883169
0.0231699737566
0.0164846961661
0.0116596988584
0.00781101139783
0.00483234920922
0.00194002858027
1.77558787174
1.76701699268
1.75745511285
1.75084721809
1.74605611523
1.74368137258
0.0243325095109
0.015763122872
0.0107133378514
0.00763429240388
0.00488727422369
0.00203221855298
1.77042889575
1.76226209166
1.75514145479
1.74862852831
1.74234963904
1.73851126172
1.72556484845
0.0303046575121
0.0129612560492
0.00655522852797
0.0053401672236
0.00422345243025
0.00244245950476
1.76931913697
1.7622621637
1.75514150952
1.74862855536
1.74234960177
1.73271102507
1.68387625727
1.12775000339
0.237750840125
0.0303045602743
0.0129611625218
0.00655515509974
0.00534009200956
0.00422337800781
0.00205005130926
1.7727901455
1.76601148467
1.75717538867
1.7505956891
1.74526997137
1.74107053659
1.73373567681
0.0286557642146
0.0151116073116
0.00890503860712
0.00687561416713
0.00484002785464
0.0020870755151
1.78214832687
1.76685331603
1.75772045796
1.75098799685
1.74640009163
1.74436586173
0.0231621693154
0.0165042732461
0.0116522059478
0.00778854970134
0.00480423673021
0.00190607769565
1.77884678789
1.76828631745
1.75815529609
1.75100343988
1.74558153844
1.74192092837
0.0237995519462
0.0163287413291
0.0111711079254
0.00765231096444
0.00477730844411
0.00211294730908
1.77440870053
1.76645624345
1.75741394917
1.75036448808
1.74385254584
1.73528782644
1.7210290712
0.0332937107745
0.0148183218002
0.00873666812842
0.00662811110609
0.00464854717562
0.0022020781684
1.77349791357
1.76598308442
1.75726678928
1.75022716751
1.74311115558
1.72996141871
1.68055307446
1.13212587272
0.254028068848
0.0454464103079
0.0142451879061
0.00770064331842
0.00616991912198
0.00451868650858
0.00214112485533
1.77631159229
1.76745224507
1.75778219585
1.75070226514
1.74474624546
1.73897648177
1.72964029342
0.0274457784207
0.0157971131194
0.0102043041096
0.00729962952255
0.0047492132876
0.00210186226171
1.78508802874
1.76905814722
1.75840925388
1.75117957696
1.74607233818
1.74311039541
0.0228849234735
0.016553030143
0.0116023484345
0.00773337642071
0.00476073084381
0.00230596724997
1.78508766553
1.77516041894
1.80491523966
1.77495960119
1.76905773877
1.76326223041
1.77140220748
1.76202419332
1.75840889905
1.7544821619
1.75964553628
1.75367408877
1.75117944429
1.74837479681
1.75195470498
1.74753863819
1.7460724514
1.74445533851
1.7461643685
1.74304625571
1.74311089465
1.74220172766
0.0234650029481
0.0228579912729
0.0228852828727
0.0189462607256
0.0227286661026
0.0191410779084
0.0165534217313
0.0140169398099
0.0175287708201
0.0134265572841
0.011602672964
0.00954788146668
0.0120997948766
0.00902613593785
0.0077336837484
0.00616830240184
0.00810571415074
0.00581889828549
0.00476106314351
0.00349575261297
0.00512376314647
0.0031702392144
0.00230618281144
0.000349592147293
0.0025093430931
0.000349161316771
1.74228006933
1.73897683156
1.73175164901
1.74106112454
1.73972053791
1.73798159156
1.7275326465
1.72964079239
1.72559274096
0.0262832464907
0.0317796239733
0.023523930754
0.0330415253975
1.68055318691
1.32974110033
1.71949724504
1.67777994698
1.34018398248
1.13212597835
0.496520300858
1.13692038252
0.512725885865
0.0369782095686
0.254028148381
0.0638385975589
0.0374913921873
0.296384406719
0.0670570764491
1.3297411257
1.72102875488
1.67777984117
1.34018392586
1.71949707791
0.496520232225
1.13692041833
0.512725756203
0.0638385626444
0.0369778613354
0.296384288987
0.0670570045712
0.0374910133646
1.73175133477
1.74192055946
1.74227956963
1.73798127754
1.72753235826
1.74106082162
1.73972003213
1.72559254612
0.0317793574949
0.0262827990166
0.0330413320776
0.0235238171583
1.77516083869
1.80491563241
1.77495994172
1.76326266894
1.77140261034
1.76202456836
1.75448244883
1.75964586389
1.75367434533
1.74837485973
1.75195489112
1.7475386932
1.74445510576
1.74616432724
1.74304598552
1.74220137028
0.023464669816
0.0228580073297
0.0189458726534
0.0227285227994
0.0191409189792
0.0140165813996
0.0175285255967
0.0134263585397
0.00954759410378
0.0120995322841
0.00902584010763
0.00616798811639
0.00810536905456
0.00581858683487
0.00349548255835
0.00512345980619
0.00317005029575
0.000349556584003
0.00250919430532
0.000349144021382
1.80631709209
1.775631905
1.7863298111
1.77446963268
1.77180999505
1.76199079469
1.77087124015
1.76151805508
1.75955706442
1.75350769696
1.75912381515
1.75332494973
1.75177515284
1.74726898897
1.75164411287
1.74747691331
1.74587525968
1.74276798098
1.74620737514
1.74377217943
1.74193550816
1.74325403922
0.0228031334827
0.0227796107991
0.022749712454
0.0194357499108
0.0226046026404
0.0187717550533
0.017830367719
0.0135925403628
0.017206699677
0.0133869824699
0.0122559101816
0.00909526616896
0.0120404084099
0.00905642588628
0.00818386663192
0.00586163146534
0.00811865185403
0.0058595368383
0.00517645692197
0.00319072475574
0.00514927025649
0.00312971615818
0.00256113138055
0.000398517007353
0.00242944943464
0.000425738204166
1.73953272264
1.73780990957
1.72740943836
1.74171066358
1.74214674841
1.73881306723
1.73165589177
1.72547422827
1.72954960466
0.0235121249247
0.0330421440311
0.0242230571015
0.0364898413294
1.67767089243
1.33979059171
1.72094996221
1.68046116394
1.32942653968
1.13630888601
0.511177560794
1.13165198126
0.495061619044
0.0372527188162
0.294579589148
0.0655956967634
0.046716661845
0.25202507007
0.060422379385
1.33979043601
1.71938693219
1.6804609622
1.32942636597
1.72094926245
0.511177477005
1.13165187642
0.495061644167
0.0655956710983
0.0372520613869
0.252025109521
0.0604222448587
0.046716352956
1.72740854562
1.74082942938
1.7395313374
1.73881236315
1.73165492744
1.74170970773
1.74214521361
1.72954863082
0.0330412655073
0.0235108328175
0.0364892678075
0.0242217710718
1.77563195495
1.78632972938
1.77446965405
1.76199106922
1.77087134725
1.76151841606
1.75350801046
1.75912422233
1.75332525559
1.74726868043
1.75164432385
1.74747674784
1.74276714463
1.74620702282
1.74377136288
1.74325296309
0.0228018845103
0.0227781280013
0.0194346135299
0.022603114334
0.0187704811942
0.0135915826377
0.0172055394503
0.0133859653545
0.00909429112379
0.0120393749548
0.0090556167495
0.00586089365871
0.00811792757521
0.00585892898661
0.00319021166612
0.00514869027264
0.00312914435008
0.000398432446016
0.00242895580354
0.000425651769001
1.78489450167
1.77362016374
1.78240738259
1.77204015905
0.00215843609638
0.000432153772303
0.00191402453492
0.000402114431052
1.77362023647
1.78240740521
1.77204033696
0.0004320855786
0.00191361376841
0.000402044192657
1.78205462407
1.77179077882
1.78191524164
1.77173761603
0.00194053038595
0.000400898100035
0.00193445533604
0.000399797635077
1.77179099928
1.7819155202
1.77173792095
0.00040079814878
0.00193403075524
0.000399703205093
1.78214804146
1.77194661847
1.78388450825
1.7730474938
0.00190652116451
0.000397510432354
0.00209769580138
0.000410788823898
1.77194692511
1.78388484964
1.77304788813
0.00039742896688
0.0020974370968
0.000410744143041
1.77346088752
1.77631138395
1.77204342957
1.79916806199
1.77479949425
1.7935080317
1.77333852313
1.76287523374
1.76745200818
1.76231335535
1.76912492565
1.76331510848
1.7683361631
1.76282842424
1.7542915886
1.75778199677
1.75398093443
1.75845457141
1.75448482857
1.75811078514
1.75420771065
1.74811917548
1.75070215904
1.74766528092
1.75108855559
1.74807876658
1.75078635548
1.7476171069
1.74350647309
1.74474629679
1.74187758865
1.74535695834
1.74297814402
1.74448186477
1.74130551685
0.0199039275239
0.0274460094973
0.0211103808433
0.0232729409283
0.020053069177
0.0264079271639
0.0208016725672
0.0135208212801
0.015797404763
0.0125043619483
0.0166214630603
0.0137416048743
0.0162203944003
0.01309864252
0.00930973702303
0.010204516045
0.00864340022307
0.0113146833192
0.00935606492078
0.0107176589436
0.00895050728997
0.00617405631419
0.00729980255778
0.00600785583088
0.00764548962152
0.00614712909153
0.00739013870562
0.00600860389276
0.00345950652992
0.00474937881927
0.00343506952582
0.00477061121527
0.00348979879985
0.00470132283327
0.00345843368174
0.000674772647482
0.00210197251677
0.000679185523684
0.00229347878804
0.000425332979858
0.00229398353449
0.000393377364571
1.7706474869
1.77349787773
1.7699476817
1.79262621859
1.77215195684
1.7914474693
1.77157190789
1.72652011345
1.72996152223
1.71404998342
1.7336431229
1.72414211412
1.7279661243
1.71119340039
0.000668849921692
0.00214115201631
0.000634403543307
0.00232247943401
0.000401068884735
0.00227441652766
0.000348674051209
1.76994773329
1.7744088514
1.77064763545
1.79144752296
1.77157196018
1.79262638447
1.77215214265
1.71404987231
1.73528767438
1.72651987933
1.72796606377
1.71119334342
1.73364295432
1.72414194042
0.000634392453115
0.00220198245013
0.000668812229191
0.00227438573881
0.000348662462887
0.00232240465328
0.000401106430198
1.77204367452
1.77884709638
1.77346123763
1.79350820946
1.77333877988
1.79916843657
1.77479981324
1.76231361588
1.76828668171
1.76287558917
1.76833643177
1.76282870788
1.76912525908
1.76331544891
1.75398113228
1.75815563438
1.75429183322
1.75811105472
1.75420793167
1.75845489622
1.75448509238
1.74766535894
1.75100363131
1.74811923022
1.75078650375
1.74761719847
1.75108872329
1.74807886063
1.74187743289
1.74558149812
1.74350627293
1.74448184559
1.74130539384
1.74535694406
1.74297793559
0.0211101907422
0.02379927995
0.0199036113095
0.0264077543808
0.0208014793501
0.0232727904963
0.0200527858809
0.012504164514
0.0163284112916
0.0135205394434
0.0162201707703
0.0130984503351
0.0166212267152
0.0137413918641
0.00864320460656
0.0111708321111
0.00930946586594
0.0107174705621
0.00895031253395
0.0113144812822
0.00935583995778
0.00600770167031
0.00765208428557
0.00617379262817
0.00738996962579
0.00600844916948
0.00764525885094
0.00614687495926
0.00343491798736
0.00477703571613
0.00345925919487
0.00470113584499
0.00345828740379
0.00477034931956
0.00348960972238
0.000679146698662
0.0021127762111
0.000674731262486
0.00229388105877
0.000393384642659
0.00229335980469
0.000425309111304
1.78823265039
1.79296907102
1.81653866269
1.78812560344
1.80506674439
1.78453352464
1.79271517511
1.78042039772
1.77500986683
1.7764666925
1.7802918685
1.77512770299
1.77949135562
1.78242051481
1.76770771363
1.77162700425
1.77200454345
1.76767735075
1.77143295877
1.7679517695
1.76809954554
1.76479917035
1.76213921629
1.7622393751
1.76477172774
1.76202557738
1.76492193973
1.76501766483
1.75747184831
1.75967058975
1.75980672595
1.75746193846
1.75966020035
1.75750073855
1.7576138587
1.75552429478
1.75371422559
1.75381351255
1.75547955697
1.75372731211
1.75548271778
1.75561440709
1.75054227486
1.75198891088
1.75210933683
1.75040880293
1.75206614717
1.75048981225
1.75058297351
1.74911964132
1.74770303613
1.74780550892
1.74887810874
1.74782834424
1.7489853859
1.74910614917
1.74559640544
1.74639666622
1.74653880757
1.74504501497
1.74664121477
1.7453437657
1.74547642231
1.74471147176
1.74355362038
1.74371777446
1.74386572096
1.74397347689
1.74429490424
1.74446899713
1.74309974882
1.74283695693
1.74301512919
1.74200940788
1.74334252867
1.74273648631
1.7427436234
1.74318886522
1.7424914628
1.74300616637
1.74282903126
0.0226877045362
0.0228894722189
0.0224011686067
0.0233464264726
0.0222513537661
0.02347534383
0.0227589579789
0.0206947005293
0.022519271009
0.0220229597359
0.0216964060854
0.0218064570666
0.0212446829351
0.021046631578
0.0196366075335
0.0186279740476
0.0186856648749
0.0204753731857
0.0184298044456
0.0199156734547
0.0199446887886
0.0158896298307
0.0171136311088
0.0172623684775
0.016179128783
0.0171304513156
0.0158656185412
0.0159692654687
0.014549856566
0.013274602796
0.0133414590836
0.014667027635
0.0133470724378
0.0144367804986
0.0145540760414
0.011012855194
0.0119915111497
0.0120540642387
0.0110182399888
0.0120898048872
0.0109588066776
0.0109932972026
0.00995712990751
0.00901268760637
0.00901713636441
0.00994521993363
0.00903087051712
0.00990365133915
0.00991481828781
0.00730657555081
0.00809561554168
0.00808709435551
0.00731042722663
0.00810917942773
0.007317300241
0.00731674101333
0.00652225118799
0.00583060554367
0.00583373508283
0.00652815570024
0.00581053430489
0.00653213787245
0.0065165498071
0.0044514912751
0.00512592204152
0.00511517586608
0.0044660602612
0.00511416225109
0.00446264720226
0.00448226197112
0.00382468811008
0.00315616817161
0.00320619894223
0.00383727874916
0.00316911323396
0.00381988584784
0.00382764759629
0.00182967551132
0.00250233380206
0.00252883213849
0.00181650840484
0.00249828375775
0.00175677447628
0.00197028423957
0.00117369915267
0.000345561513286
0.000397296068639
0.00117181417058
0.000361058786606
0.000958311211544
0.00124524166627
1.73874271279
1.7401984004
1.74145763627
1.73773731239
1.74131055726
1.7386500307
1.73914791832
1.72687654608
1.72895159119
1.72948040821
0.0273159905775
0.0239702365875
0.0244889520585
0.0252497363327
0.024834285672
0.0258659705652
0.026948853884
1.71275107186
1.7181512978
1.71052626259
1.70562235901
1.71241025252
1.70774123515
1.70313345434
1.6525357323
1.33578445047
1.55748457168
1.54786197288
1.6603416623
1.13482717839
0.936115744561
0.936372582529
0.507779633757
0.725037863446
0.723574683239
0.045835376606
0.0524129396692
0.0530802487821
0.0495569829297
0.0160335037951
0.27889275784
0.120051338283
0.118319167839
0.0309843382185
1.65253564979
1.33578450439
1.55748452755
1.54786203776
1.66034146722
1.71275099948
1.71815109176
1.70562225583
1.71052612537
1.70774120055
1.71241024605
1.70313341091
1.13482705022
0.936115863269
0.936372457471
0.50777956308
0.725038096901
0.723575237208
0.0160331144819
0.278892280307
0.12005135743
0.118318606138
0.0309844648586
0.0458349385143
0.05241270801
0.0530800215873
0.049557069936
1.73874226154
1.74019782846
1.73773670987
1.74145729008
1.73864935568
1.74131020058
1.73914753547
1.72687623484
1.72895118877
1.72947994661
0.0273158989677
0.0239702408076
0.0252493907253
0.0244888314872
0.0258660182252
0.0248343881424
0.0269487888868
1.78823301832
1.79296947286
1.78812595302
1.81653909011
1.7845338634
1.80506730241
1.79271535462
1.78042075038
1.77501025257
1.78029216222
1.77646704308
1.77949167887
1.77512811718
1.78242077463
1.76770819259
1.77162741707
1.76767777837
1.77200498734
1.76795215627
1.77143338111
1.76809997098
1.76479960445
1.76213960806
1.76477209294
1.76223975929
1.76492232005
1.76202595813
1.76501806258
1.75747220339
1.75967096038
1.75746227705
1.75980705404
1.75750108493
1.75966059375
1.75761421027
1.75552458097
1.7537144775
1.75547984338
1.75381376685
1.75548298284
1.75372754821
1.75561465949
1.75054246423
1.75198912303
1.75040897174
1.75210953226
1.75048999312
1.75206637189
1.75058314714
1.7491197274
1.74770308928
1.74887822703
1.74780554298
1.74898548259
1.74782833981
1.74910622725
1.74559626775
1.7463966174
1.74504490913
1.74653874062
1.74534361821
1.74664113707
1.74547626495
1.74471124047
1.74355333209
1.74386549242
1.7437175075
1.74429464998
1.74397328448
1.74446882193
1.74309933287
1.74283661617
1.74200889713
1.74301462812
1.74273620408
1.74334234806
1.74274266971
1.74318840913
1.74249102928
1.74300615673
1.74282774
0.0226879493782
0.0228893277749
0.0233467772096
0.0224014271238
0.0234748324443
0.0222511199836
0.022760491548
0.0206946130347
0.0225193530403
0.0216963778363
0.0220226681571
0.0212445369351
0.0218063020661
0.0210469125431
0.0196364475828
0.0186277459769
0.0204752720723
0.0186855789603
0.0199154905947
0.0184296212931
0.019944824533
0.0158893246855
0.0171133796456
0.0161788896818
0.0172622599478
0.0158653930033
0.0171302238676
0.0159690831836
0.0145496167961
0.0132742980474
0.0146668261667
0.0133412791585
0.0144365802932
0.0133468511777
0.0145539480812
0.0110126579849
0.0119912517029
0.0110179736119
0.0120538293557
0.0109585983992
0.0120896356568
0.010993103287
0.00995685596328
0.00901230160554
0.00994492224945
0.00901681710326
0.00990337123245
0.00903055443594
0.00991460192172
0.00730618184005
0.00809523751364
0.00731000769178
0.00808670498518
0.00731686982936
0.00810877568134
0.00731621456617
0.00652179485035
0.00583023754628
0.00652780966934
0.00583342610536
0.00653178134701
0.00581023346029
0.0065162444547
0.00445103268718
0.00512557095886
0.00446572869273
0.00511486758681
0.0044622825445
0.00511376119261
0.00448179024685
0.00382430687555
0.00315596032046
0.00383706735053
0.00320598565462
0.00381960092864
0.00316885597815
0.00382731377297
0.00182946084555
0.00250215021287
0.00181636919896
0.00252864287607
0.00175656772037
0.00249806082764
0.00197006971065
0.00117358348475
0.000345543968432
0.0011717416726
0.000397275484275
0.000958213601237
0.000361028476603
0.00124515973527
1.77542439917
1.79384189868
1.77365740739
1.77955127573
1.77421186768
1.77666832032
1.77235151842
1.76340139535
1.76851666425
1.76288809175
1.76859464731
1.76289231733
1.7676205409
1.76235533288
1.75437357961
1.75808401173
1.75412328995
1.75805196421
1.75414509618
1.75774277951
1.75389502774
1.74787683893
1.75066263002
1.74745985039
1.75083165528
1.74790939197
1.75058662826
1.74752071825
1.7427180577
1.74429938805
1.74111310877
1.74531366967
1.74319115191
1.74457408782
1.74168745654
0.0201706753169
0.0263550847452
0.0207717782195
0.0234563204976
0.0200288903389
0.027284233097
0.0209185325308
0.0139096142914
0.0163092331013
0.0132516891578
0.0164658459682
0.0136274683609
0.0157925597532
0.0126034928328
0.00946024916982
0.0108724414429
0.00908349731481
0.0112389392736
0.00936347332593
0.0103207432153
0.00874845699692
0.00621773296517
0.00749789269664
0.00609161270013
0.00770335565959
0.00622686156074
0.00738616649616
0.00607522128252
0.0035319533004
0.00475979906862
0.00349530794309
0.00481954803456
0.00348022119425
0.00479428422233
0.00345809274718
0.000462289184913
0.00231807315166
0.000401895474323
0.00212041159948
0.000721870465586
0.00211032490905
0.000681228528709
1.77231567591
1.79158249514
1.77168522759
1.77458467599
1.77080284128
1.77361519824
1.77005346441
1.76230723118
1.76722345139
1.76206782967
1.76655374364
1.76163062098
1.76605252911
1.7613573466
1.75383094039
1.75754541429
1.75375056628
1.75740123448
1.75358725752
1.75726961223
1.75352120636
1.74694073398
1.7502210146
1.74664782846
1.75029085882
1.74698243946
1.75018111734
1.74670087308
1.73899976944
1.74245903649
1.73660681713
1.74374392053
1.73973731219
1.74303824525
1.73751282027
1.72403588804
1.72787102814
1.71109603936
1.73518248041
1.72642911196
1.72987936869
1.71396616213
1.71042197319
1.70551385757
1.70302734267
1.7126524291
1.71805200495
1.71231539794
1.70764099594
0.0518293612071
0.0488912160639
0.0431815014062
0.0510144057483
0.0213352880726
0.0436578007084
0.0235892363643
0.0340040715648
0.0219455059311
0.0454978177468
0.0246909951511
0.0120471981574
0.0145325258525
0.0109987221926
0.0147171926403
0.0109841203585
0.0143517809882
0.00989241974675
0.00844410475419
0.00907138470102
0.00788446506391
0.00886396707252
0.00761456680042
0.0078712842428
0.00688057142327
0.00588571038115
0.00677864310059
0.00571397939225
0.00673571846662
0.00566869571626
0.00629308498994
0.00541061807651
0.00349148454254
0.00459134201692
0.00343013927808
0.00470284288298
0.0034583182953
0.00458296416304
0.003394000843
0.000406363653678
0.00230427999564
0.000350155676491
0.00221893903699
0.00067519914083
0.00216447996722
0.000641301429302
1.77168522586
1.7928655759
1.77231568417
1.77361519145
1.77005345995
1.77458466924
1.77080285697
1.76206789009
1.76763567535
1.76230727406
1.76605254955
1.76135736449
1.76655380215
1.76163067367
1.75375056888
1.75769561311
1.75383095823
1.75726964087
1.75352123562
1.75740127442
1.75358726032
1.74664778948
1.75034333422
1.74694065085
1.75018112568
1.74670085902
1.75029084603
1.74698236025
1.73660669147
1.74329039162
1.73899946873
1.74303819017
1.73751273826
1.74374377209
1.73973704562
1.71109583183
1.7335238748
1.72403534739
1.72987921065
1.71396595801
1.7351820421
1.72642858287
0.935233716598
1.13423991994
0.935519634718
0.118163212322
0.0294158476773
0.0133593921774
0.276971309881
0.116129799624
0.0235890543894
0.0318498513149
0.0213347932422
0.0454976378655
0.0246908333214
0.0340037340435
0.021945089442
0.0109986546047
0.0152082981823
0.0120468248919
0.0143516313834
0.00989232655757
0.0147167758642
0.0109838061796
0.00788440336555
0.00990295115566
0.00844388267765
0.00787119730949
0.00688049273648
0.00886368687893
0.00761437390785
0.00571393553225
0.0071124254224
0.00588557943732
0.00629304974945
0.00541055121101
0.00673552406971
0.00566858160481
0.00343007490444
0.00468616655122
0.00349130722526
0.00458291863416
0.00339392963023
0.00470270394103
0.00345818468775
0.000350129334875
0.00234874007555
0.00040638569957
0.00216444193457
0.000641283588571
0.00221880944698
0.000675145202083
1.77365741779
1.80020787451
1.77542444524
1.77666832324
1.77235154924
1.77955125731
1.77421189968
1.76288822465
1.76943628523
1.76340159188
1.76762064109
1.76235546832
1.76859480349
1.76289253289
1.75412335685
1.75841378676
1.75437374759
1.75774289199
1.75389510719
1.75805222439
1.75414527872
1.74745971504
1.75093114234
1.74787668444
1.750586637
1.74752062792
1.75083173835
1.74790927281
1.74111263105
1.74511322779
1.74271741199
1.74457381988
1.74168697843
1.74531331796
1.74319050961
1.72882589561
1.72676270203
1.72936761387
0.020770898833
0.0232153310856
0.0201695618598
0.0272834418179
0.0209177932525
0.0234551406045
0.0200278118374
0.0132510854514
0.0167980687997
0.0139086948049
0.0157918552171
0.0126028830407
0.0164648485872
0.0136266168145
0.00908309032383
0.0114473304336
0.00945956591258
0.0103202369062
0.00874802565926
0.0112382136359
0.00936281961064
0.00609129468822
0.0077297843859
0.00621720742891
0.00738581717687
0.00607488822344
0.00770277003635
0.00622633755683
0.00349498633682
0.0048262404128
0.00353154320901
0.00479397060408
0.00345777068413
0.00481906630822
0.0034797551438
0.000401867300602
0.00232929462774
0.000462210791054
0.00211004897706
0.000681122026997
0.00212003148121
0.000721725290715
1.78944890348
1.81824307221
1.79447881674
1.79444822581
1.80694022039
1.7903496268
1.78606134643
1.76788698365
1.77260626505
1.76842559422
1.76815225351
1.77209347564
1.76806736868
1.77222244242
1.75734121508
1.75970890031
1.75747844698
1.75738092966
1.75953568711
1.75731483454
1.75957835568
1.75019953212
1.75189919932
1.75033607272
1.75034507235
1.7518080257
1.75026604606
1.75187874428
1.74472667598
1.74615483581
1.74504488237
1.74520521707
1.74609654194
1.74502185718
1.74626373187
1.74176385424
1.74264080924
1.7424388616
1.7428215761
1.74258854914
1.74249364946
1.74297942808
0.0218667399207
0.0221129771463
0.0213381937022
0.0210812490466
0.0224327586256
0.0214380004387
0.0218898500724
0.016424449182
0.017676497499
0.0162951600559
0.0161658916743
0.0174444397553
0.0161144919043
0.017500655416
0.0111218984855
0.0122176702503
0.0110997793273
0.0110521767401
0.0121234655544
0.0110331831488
0.012147323398
0.00736282460335
0.00815936009743
0.00736774169815
0.00734147763361
0.00815523779849
0.00735310017717
0.00812029693103
0.00449641080059
0.00517414210357
0.00452821161991
0.00452191717797
0.00517430741148
0.00448951137149
0.00515870014112
0.00188868761694
0.00258229675369
0.0019512037913
0.00185763560062
0.00252095480051
0.00179779761515
0.00256347679126
1.7674925675
1.76246690584
1.76684080154
1.76211009243
1.75784592448
1.75409537266
1.7576289421
1.75399140871
1.75092076826
1.74825580433
1.75089728959
1.74833232102
1.74611741614
1.74479057146
1.74631469613
1.74519180014
1.74345784497
1.74429948608
0.0234422372744
0.0237951514123
0.0229240845557
0.0190531952074
0.0231959502943
0.0189395491964
0.0166340318283
0.0141498476568
0.0165581120456
0.0141449007464
0.0116723666515
0.00963125107322
0.0116744195698
0.00965806336151
0.00778779807432
0.0062324380423
0.00780303160819
0.00624260433015
0.00482487105959
0.00368512023306
0.00481797481789
0.00368362434841
1.77306860921
1.77444147538
1.77108934212
1.77584383675
1.77208607124
1.77294462874
1.77009409036
1.76235774146
1.76672734016
1.76171065757
1.7670761787
1.76193401564
1.76606885444
1.76130990134
1.75395692788
1.75740218018
1.75370966259
1.75740659344
1.75382215148
1.7571564816
1.7536144714
1.74807526658
1.75055265854
1.7477101464
1.75078153872
1.74818641715
1.7505525641
1.74785971206
1.74400914056
1.74491909842
1.7427272414
1.74598341113
1.74452985128
1.74521377571
1.74335961826
1.74327537616
1.74011260469
1.73274498532
1.7436041491
1.74549910079
1.74100934566
1.73497049463
1.7309733744
1.73370560862
0.02727720258
0.0334081398955
0.0273907679337
0.0326932808931
0.0200424587794
0.0284969302326
0.0224282027305
0.0244048707306
0.0200374447376
0.0287601432539
0.0227081296646
0.0133227192392
0.0154963390842
0.0121750014943
0.015815362123
0.0130760015142
0.015146019115
0.0116652488761
0.00926599181893
0.00955949477301
0.00826672070766
0.0107532373655
0.00915766893991
0.00896605492821
0.00786209377983
0.00627124204636
0.00714038077103
0.00598614687701
0.00766169153856
0.00629423097665
0.00692120484624
0.00589979429399
0.00354741222601
0.00487519360142
0.00354340403086
0.00490599334315
0.00353722628682
0.00486439165995
0.00351154082572
0.000758065563561
0.00221557987673
0.000735043746324
0.00203550162561
0.000711470401368
0.00209271411149
0.000658529946701
1.76883407948
1.77102794373
1.76794300131
1.77051863079
1.76782063608
1.76938301451
1.76692407658
1.68225577213
1.3278910078
1.72553590656
1.68383600712
1.32632134731
1.13021803066
0.490878592923
1.12761646769
0.484645567688
0.0397819704012
0.245388149626
0.0538115735463
0.0378084591681
0.237624669473
0.0510691491162
0.000844459115624
0.00269492142178
0.000798756291815
0.00245434299448
0.000723408795188
0.00206314311403
0.000655869620673
1.76794302166
1.77210121818
1.76883411951
1.76938303415
1.76692409582
1.77051867251
1.76782069659
1.32789085902
1.722646568
1.68383586324
1.32632130664
1.7255354464
0.490878682567
1.12761644603
0.484645636487
0.0538115207247
0.0397816151817
0.237624751604
0.0510691412668
0.0378081899853
0.000798737367827
0.002910896862
0.000844390170183
0.00206312120442
0.000655864348091
0.00245423149117
0.000723370804765
1.77108942044
1.77732921069
1.77306872961
1.77294471723
1.77009418887
1.77584389141
1.77208619995
1.76171077508
1.76773031324
1.76235800638
1.76606896844
1.76131002452
1.7670763624
1.76193423448
1.7537097502
1.75769465576
1.75395714271
1.75715657668
1.75361456769
1.7574068367
1.75382232617
1.74771007769
1.75081034503
1.74807516938
1.75055258161
1.74785966003
1.7507816251
1.74818634388
1.74272683461
1.74573175045
1.74400854525
1.74521359867
1.74335928046
1.74598313206
1.74452932901
1.73274405472
1.74278135762
1.74327390554
1.74100877943
1.73496969087
1.74360333624
1.74549787535
1.73370471295
0.0334075516455
0.0272760223376
0.0326926882189
0.0273896710989
0.0224275511959
0.0241580738598
0.020041392496