/*--------------------------------*- C++ -*----------------------------------*\
  =========                 |
  \\      /  F ield         | OpenFOAM: The Open Source CFD Toolbox
   \\    /   O peration     | Website:  https://openfoam.org
    \\  /    A nd           | Version:  7
     \\/     M anipulation  |
\*---------------------------------------------------------------------------*/
FoamFile
{
    version     2.0;
    format      ascii;
    class       surfaceScalarField;
    location    "4";
    object      phi;
}
// * * * * * * * * * * * * * * * * * * * * * * * * * * * * * * * * * * * * * //

dimensions      [0 3 -1 0 0 0 0];

internalField   nonuniform List<scalar> 
14871
(
-1.88196580857e-13
1.01269978336e-12
1.28747717112e-13
2.96749084287e-13
-6.7019053146e-14
-3.3548855046e-12
2.65072491068e-12
4.89615284121e-13
5.04171163441e-13
-4.72527982819e-14
-1.0326201235e-13
-7.20922929704e-14
-1.00126586248e-14
-2.2009030091e-12
1.93661924325e-12
1.63585544404e-13
1.47084382376e-13
-8.57471582434e-15
-1.53335834075e-14
-1.24653305348e-14
-9.78050736436e-15
-1.77677122494e-12
1.65688592874e-12
1.5745815385e-13
9.46673815085e-15
-1.01123221905e-14
-1.34658934313e-14
-1.36809595862e-14
-2.59299489383e-14
-1.53845465888e-12
1.38070872151e-12
3.97663352051e-13
-1.11524641815e-13
-2.89718258968e-14
-3.4711488381e-14
-3.87796358803e-14
-7.45943058073e-14
1.11731663528e-12
-2.95625900881e-13
-1.13349926714e-12
-7.93549682214e-14
-9.77202614361e-14
-1.04911535215e-13
1.1259989893e-13
1.50444649462e-13
2.3831047912e-13
1.67034301181e-13
4.00405436235e-14
-2.25425572725e-14
6.52343000738e-13
-8.26686056559e-13
6.57280859845e-14
3.98944460729e-14
5.11411890282e-14
5.39390354129e-14
-2.19109168565e-14
-1.94595363085e-14
-1.24872611679e-14
2.14051126009e-14
-1.10315653329e-12
1.35189332601e-12
-3.32997521946e-13
-2.0318877324e-14
1.85108244247e-14
3.42855000506e-14
3.03781929514e-14
8.33106262028e-17
-1.48708040207e-12
1.52591540256e-12
-2.28648686971e-14
-2.02229880888e-14
-5.13755678028e-16
2.66833405039e-15
2.01496689298e-15
-3.07878674649e-15
-1.5353991333e-12
1.51762552743e-12
3.77828073806e-14
-6.28603354406e-15
-3.31797022752e-15
-3.84966021236e-15
-3.47676157924e-15
-7.35258326666e-16
-1.49908119354e-12
1.49380254198e-12
1.27076104279e-14
-4.18437359286e-15
-6.88459643076e-16
-1.38693608795e-15
-4.33971269783e-16
6.97188453692e-15
-1.51821391676e-12
-5.74301716009e-14
-9.23916373411e-15
9.60640450534e-15
7.22298016782e-15
7.47700083809e-15
2.56809082029e-13
2.85541952355e-13
4.7350979402e-13
5.37743083333e-13
-4.23108608494e-14
2.8536259349e-14
9.75499459033e-13
2.88275156775e-13
-4.31158104887e-13
-3.35607869307e-12
2.96256535788e-12
2.33367679e-13
5.91303761076e-13
-1.95522120727e-13
-2.70896960926e-12
2.57700371378e-12
1.16606196765e-13
2.10881819446e-13
-2.06290111178e-13
-2.53590020838e-12
2.56505193665e-12
1.34313459474e-13
4.28249234395e-14
-5.48548779447e-13
-2.6890100458e-12
2.96363287825e-12
4.25348005664e-13
-1.51422058667e-13
-1.80564331006e-12
-3.45096800814e-12
4.15458566003e-12
1.78222864987e-12
-6.80202991708e-13
-3.65855260749e-13
-6.27324610622e-13
3.1263955846e-13
7.33640148249e-13
-5.30977615994e-14
-2.64847366133e-13
1.93871575927e-12
2.73954421538e-12
-3.34853001696e-12
3.89999095396e-13
-5.29839449428e-13
-2.2728707173e-13
-6.97757036405e-13
5.39472537043e-13
-2.72765247972e-12
2.55907821149e-12
-5.32447198257e-13
1.6154892944e-13
4.23291669955e-14
-2.45911803748e-12
2.34773236565e-12
-3.93258606543e-14
1.08382365477e-13
-4.51961991092e-14
-2.29308128146e-12
2.24167460583e-12
3.15102891687e-14
6.50925855758e-14
-1.39076303727e-14
-2.20756584832e-12
2.19152948866e-12
1.30915773921e-14
1.68524126524e-14
5.82407898854e-14
-2.19588943911e-12
-2.5653859908e-14
-1.87203042981e-14
3.71967606895e-13
3.77737481812e-13
7.23791659553e-13
7.08525549611e-13
-5.81672110562e-19
-8.43666738927e-15
9.69559223799e-13
2.88878025258e-13
3.87866682578e-18
-3.30239039754e-12
2.95283453555e-12
-2.33372629972e-13
5.82924613295e-13
2.37640888172e-18
-2.75422046634e-12
2.67091154659e-12
-1.16613307157e-13
1.99919850504e-13
5.66174723183e-18
-2.68888840206e-12
2.80102035513e-12
-1.34311775738e-13
2.21741609283e-14
2.365375064e-18
-3.09138369758e-12
3.74099074582e-12
-4.25337058766e-13
-2.24272354848e-13
-9.45885978462e-18
-5.00223842739e-12
7.46820246592e-12
-1.78221316795e-12
-6.83741411728e-13
-1.04782416435e-17
-1.24959425095e-12
-1.19266370421e-11
5.68487531605e-12
2.14393529953e-12
2.71455757199e-12
8.27727985492e-12
-1.22789613647e-12
-1.20528405611e-12
-1.50507563079e-12
-1.70615345024e-12
4.80907055274e-19
-7.77274912302e-12
7.7405726256e-12
3.21760164894e-14
9.02793870339e-19
-7.45284811206e-12
6.99932591678e-12
4.5352129248e-13
-1.04761685866e-11
-1.0326544665e-17
6.30031326489e-12
3.34855968709e-12
8.27305961372e-13
-9.31245602102e-18
-4.22720325537e-12
3.24877513669e-12
5.32470708814e-13
4.4596672235e-13
-1.00051268022e-17
-2.79918479061e-12
2.53753776719e-12
3.93254384094e-14
2.22331590128e-13
-1.57579932409e-17
-2.42204133851e-12
2.34986180587e-12
-3.15211918936e-14
1.03716482531e-13
-1.0282264914e-17
-2.31134123309e-12
2.29054464056e-12
-1.30881051211e-14
3.3894979925e-14
-1.31517853058e-17
-2.28874891871e-12
2.56643456082e-14
-7.73941162787e-16
3.88782482604e-13
3.87429296569e-13
7.41994118265e-13
7.45665280803e-13
4.23103995041e-14
-6.1209311071e-14
9.80852239209e-13
2.88046682016e-13
4.31167736587e-13
-3.4240083263e-12
2.92554119941e-12
-4.89620555398e-13
5.56919945705e-13
1.95534009262e-13
-2.57776948035e-12
2.36546991676e-12
-1.63595347107e-13
1.80360901441e-13
2.06302196887e-13
-2.24729332615e-12
2.17899108111e-12
-1.57461824674e-13
1.94618728365e-14
5.48554213481e-13
-2.14824414762e-12
2.1395263289e-12
-3.97651559494e-13
-1.42184835265e-13
-1.11730418981e-12
-4.41926298824e-13
1.80562460201e-12
-2.11957487745e-12
4.3155725954e-13
3.20321520448e-13
4.75165469982e-13
6.46136300319e-13
3.65854812962e-13
-1.80249053012e-13
-1.50449809735e-13
-3.51559502161e-14
-8.25831720968e-14
-1.93875567357e-12
1.2754267503e-12
8.26698067488e-13
1.29812803532e-13
-7.56428862105e-14
-6.26317615679e-14
-7.23267151894e-14
-5.39491706259e-13
-1.74987955573e-12
1.92817709107e-12
3.33009948889e-13
2.81842220186e-14
-4.23517507834e-14
-2.01562194574e-12
2.01126504341e-12
2.28811001469e-14
2.38275529593e-14
4.51595986445e-14
-2.00531196821e-12
1.97641361729e-12
-3.77700239129e-14
2.15087761965e-14
1.38841609113e-14
-1.95377539036e-12
1.9446384336e-12
-1.2697450173e-14
7.95024603035e-15
-5.82564391108e-14
-1.95955990416e-12
5.74317125241e-14
-3.59679050885e-15
3.45649380217e-13
3.33327056025e-13
6.26617733985e-13
6.58386680312e-13
1.88196218436e-13
9.99057411067e-13
-2.20645790999e-13
2.83392182092e-13
-3.66628353669e-13
6.70191336545e-14
2.9403897686e-13
-3.18343433666e-14
3.74060446797e-14
-1.91321841653e-13
1.00165909677e-14
1.78418978477e-13
-3.97430067172e-15
6.86116863659e-15
-1.56267948294e-13
9.78443426211e-15
1.50706270702e-13
-3.4070333363e-15
-8.15610513215e-16
-1.35344475012e-13
2.59311819865e-14
1.26291278862e-13
-8.83304549771e-15
-8.04519501637e-15
7.45931192066e-14
-8.87408465671e-14
5.95543178456e-14
-2.49708794634e-14
-2.04364083973e-14
8.21287522959e-16
-4.00408330867e-14
2.36501949585e-14
1.26800844174e-14
2.8885683279e-15
-9.3967343638e-14
-2.14029929303e-14
1.09588278009e-13
6.0293730729e-15
-2.48169371848e-16
-1.40230000983e-13
-8.3991823304e-17
1.43059883551e-13
-1.08242151437e-15
-1.66437848294e-15
-1.4607295489e-13
3.07089128595e-15
1.4565783925e-13
-1.80181490321e-15
-8.54867137839e-16
-1.42672026696e-13
7.30685527066e-16
1.43491941059e-13
-9.64233704071e-16
-5.87423887908e-16
-1.50954828116e-13
-6.97181440845e-15
1.54508711173e-13
8.16938898591e-16
2.59948640957e-15
-3.46232867612e-13
-1.01261456224e-12
5.64559650756e-12
1.22046291138e-12
6.14237431408e-13
-3.43737841686e-13
-3.91021532837e-13
-3.86688983361e-13
-7.91516470217e-13
-3.95852403837e-13
-5.64460827465e-12
5.18868774916e-12
9.95146687807e-13
6.48142711745e-13
-2.40811879522e-13
-1.72567840543e-13
-4.86327567691e-12
4.6335605396e-12
4.14587836465e-13
2.28507020923e-13
4.23752236026e-15
-1.51268629638e-13
-4.44786048797e-12
4.23601114779e-12
3.64650458698e-13
-5.77001122293e-15
2.27944408865e-13
-3.212936905e-13
-3.93989008986e-12
3.46209655611e-12
7.87336829287e-13
-2.16194013871e-13
4.82616082327e-13
-1.41221008385e-13
-2.71501695145e-12
1.81698620454e-12
-4.29497307423e-13
-1.55746497517e-13
-1.42978721715e-13
-1.55960742614e-13
3.0049369259e-13
4.18673718636e-13
4.21194487515e-13
3.00457811169e-13
-9.71781913405e-14
9.83010804968e-14
-4.76851699554e-13
1.5521602629e-12
-1.5632399206e-12
1.67547432075e-13
1.09708847444e-13
9.77275830214e-14
1.11824319243e-13
2.00003320426e-14
4.3764742435e-13
-2.76580056982e-12
3.54437212174e-12
-1.24696058922e-12
1.07412808999e-14
4.01407627616e-14
9.96277127811e-14
-4.05962733354e-12
4.27800965313e-12
-3.27100048426e-13
-3.10507467309e-14
2.51663191652e-14
-1.9339992739e-14
-4.38370603633e-12
4.40292571855e-12
1.96209975708e-16
-2.52422186255e-14
3.40150600659e-14
-3.58996646557e-14
-4.39858016315e-12
4.41373584797e-12
2.42784417622e-14
-3.75495219747e-14
1.52002178082e-14
3.28944740133e-14
-4.48070936185e-12
4.57154177474e-12
-1.19534411816e-13
-4.31326693688e-14
6.18709210414e-15
1.32508597254e-14
4.30160229175e-15
-1.07755703276e-12
-8.27730435673e-13
5.84410965538e-12
3.88224164775e-13
6.72953648237e-13
3.27593343443e-11
-2.69631698064e-17
1.8124013012e-12
-1.05640205322e-12
-7.40052466686e-13
-1.04887370188e-12
-7.04565961641e-13
-1.10868078267e-12
-7.90447151273e-13
-1.11345696116e-12
-7.63438436984e-13
-6.84198848241e-12
-6.78166135519e-12
-6.84272095522e-12
-6.77944142214e-12
3.46913134404e-11
-1.50133240848e-17
7.94726986935e-13
-3.41141805467e-13
-2.11097654642e-13
-3.30598774327e-13
-1.81441969772e-13
-4.57553914252e-13
-3.80301065659e-13
-4.62341949442e-13
-3.62255478944e-13
3.67264738129e-11
9.82500202108e-19
6.24553123154e-14
-5.0170609748e-14
3.19088018993e-14
-2.47515822793e-14
6.95296102779e-14
-4.57860231122e-13
-5.96391286958e-13
-4.72475496085e-13
-5.97469851553e-13
8.67687086394e-12
4.54498287882e-17
-9.91784418858e-13
3.28404558446e-13
5.90355666151e-13
4.80691310777e-13
6.45138457862e-13
-1.11481243574e-12
-1.5613477604e-12
-1.14153593841e-12
-1.56612689793e-12
1.14431521685e-11
9.01788518218e-12
1.19195217602e-11
1.07514993427e-12
-2.82701929642e-12
8.34919359392e-12
2.88378680434e-12
-8.04224245156e-13
2.14634750902e-13
-7.8792940266e-13
-1.30810613286e-12
6.13861383536e-13
1.4468093487e-12
-1.79267202667e-13
4.39398049e-11
1.19442296696e-16
2.77894182428e-12
-1.24385883012e-12
-2.84022182676e-13
-2.32582338628e-12
-1.22506320984e-12
3.57480766341e-12
3.88027862917e-12
3.55944608564e-12
4.05248125596e-12
-6.21325535758e-12
-2.23563953405e-11
-5.77255619724e-12
-2.23649344509e-11
3.57423492157e-11
1.00846253269e-16
1.29964857601e-12
-1.72849919466e-14
-9.2225469819e-14
-2.4192725671e-13
-2.32871171051e-13
2.06563101255e-12
1.45425256144e-12
2.28380979592e-12
1.67827108323e-12
3.42928804504e-11
6.03263200673e-17
7.86436256578e-13
-1.77184840315e-13
-2.3482291207e-13
-2.38950837175e-13
-2.70774262526e-13
4.88778182115e-13
1.98358513853e-13
6.15530319702e-13
2.82064585841e-13
3.45577821601e-11
6.90698882796e-17
4.04720315349e-13
-1.52200379641e-13
-1.2156897958e-13
-1.72151866133e-13
-1.39507117402e-13
-1.81134885404e-14
-4.89633509193e-14
2.15211273535e-14
-3.86088445908e-14
7.97219348415e-12
7.8421490758e-17
-8.96573719978e-14
7.03175864255e-15
5.35371954124e-14
1.26860971304e-14
3.84774187772e-14
1.15092583797e-14
9.38928975722e-14
3.04715923452e-14
7.83277968103e-14
8.36052567385e-12
8.76258515343e-12
9.22614043179e-12
1.23366784667e-13
2.16359545387e-13
7.76871757535e-12
-8.73244407542e-14
-4.89377936384e-14
-1.08182824529e-12
1.86885284512e-18
5.79645942293e-12
-3.88228025224e-13
6.73594979939e-13
3.27593430929e-11
-1.10870878099e-12
1.81240164395e-12
-1.0488650298e-12
-7.04557472507e-13
-1.05641729538e-12
-7.40060977307e-13
-6.78165026899e-12
-6.84199891305e-12
-6.77943002756e-12
-6.84272938244e-12
-7.90461948414e-13
-1.11346969552e-12
-7.63447062404e-13
3.46913243821e-11
-4.57584617397e-13
7.9471470522e-13
-3.30597811606e-13
-1.81440153585e-13
-3.41153554407e-13
-2.11102796303e-13
-3.80317225856e-13
-4.62353465101e-13
-3.62265953662e-13
3.67265101983e-11
-4.57877021269e-13
6.24527649413e-14
-2.4750136409e-14
6.95335562643e-14
-5.0177824451e-14
3.19087204314e-14
-5.9639649567e-13
-4.72483038097e-13
-5.97470644588e-13
1.14431584673e-11
-1.11480798684e-12
-9.91793575694e-13
4.8069182865e-13
6.45143686677e-13
3.28405560319e-13
5.90368383063e-13
-1.56132320114e-12
-1.14153630831e-12
-1.56610670712e-12
8.67689794591e-12
1.1919526623e-11
9.01790443081e-12
1.07209781532e-12
5.39446589786e-18
1.40828958904e-11
-2.88378598215e-12
-8.28052551201e-13
1.70649122304e-12
-5.36996453516e-18
-1.27716008997e-12
9.89120938983e-12
3.43617738378e-12
3.43997857112e-12
9.92086947181e-12
-1.90301832833e-11
-2.14671985033e-12
-1.89203682428e-12
-1.89690322114e-12
-2.15172004643e-12
1.85046371027e-17
1.70007156092e-18
-1.31824373414e-11
1.31884524127e-11
-6.03527599097e-15
-3.204062297e-13
5.00451267787e-18
-1.32859299463e-11
1.33840538459e-11
2.222773256e-13
4.39397327135e-11
3.5748573687e-12
2.77890423907e-12
-2.3258105161e-12
-1.22505902067e-12
-1.24384679606e-12
-2.84003659221e-13
-2.23563790784e-11
-6.21322594853e-12
-2.23649172021e-11
-5.77253753703e-12
3.88032990289e-12
3.55950810743e-12
4.05254105149e-12
3.57422901831e-11
2.06567692029e-12
1.29964279856e-12
-2.41921425366e-13
-2.32874897525e-13
-1.72564949294e-14
-9.2211214033e-14
1.4542961269e-12
2.28386018086e-12
1.67830922943e-12
3.4292836836e-11
4.88812210227e-13
7.86451468742e-13
-2.38955021256e-13
-2.70776731096e-13
-1.77170531829e-13
-2.34816134775e-13
1.98391092401e-13
6.15550057832e-13
2.82087161256e-13
3.45577456172e-11
-1.80869492408e-14
4.04722459291e-13
-1.72165370783e-13
-1.39513635161e-13
-1.5219007184e-13
-1.21570219709e-13
-4.89379641236e-14
2.15347672644e-14
-3.8596971959e-14
8.36051436106e-12
1.15355513135e-14
-8.96693800571e-14
1.26740900972e-14
3.84730130372e-14
7.03488581275e-15
5.35365774786e-14
7.97219619947e-12
9.22612412098e-12
8.76258166474e-12
9.39227410287e-14
3.0493650159e-14
7.8350191743e-14
8.23397517118e-14
-3.13473841809e-18
8.2087379115e-12
8.73193080417e-14
-1.78839909358e-14
-1.04913725336e-12
8.27734996449e-13
5.78163089876e-12
-1.22046452795e-12
6.60235886064e-13
-8.95913388559e-13
-6.24937325052e-12
6.26563827282e-12
-9.95146110997e-13
7.66096254094e-13
-3.13684413867e-13
-6.16148177454e-12
6.12160711182e-12
-4.1459366934e-13
3.10574588253e-13
-2.38957403299e-14
-6.05869240024e-12
5.96772683908e-12
-3.64658301095e-13
2.16423873709e-14
2.61515531124e-13
-5.87182650429e-12
5.55712815873e-12
-7.87337012461e-13
-2.74285126356e-13
7.3103842642e-13
-5.09375858357e-12
-1.81697831274e-12
-6.31670970853e-13
2.82701429583e-12
1.13556788724e-12
8.4441507854e-13
8.54411555121e-13
1.14996142542e-12
1.05452018587e-13
7.87926408473e-13
-5.10864821334e-13
-2.91035935598e-13
-9.14776701396e-14
-2.62537660078e-13
-1.16769723719e-12
3.02163049748e-12
1.56327844168e-12
4.20212311898e-13
-3.41636040276e-14
-4.67471304084e-12
5.43489632289e-12
1.24698397155e-12
9.26631448601e-14
-3.87067677973e-14
-6.0150687165e-12
6.19555832831e-12
3.27120486899e-13
1.98998892081e-14
-2.95887150179e-14
-6.25026157457e-12
6.24892028554e-12
-1.74192109286e-16
1.29991386072e-14
1.87072127539e-14
-6.25137980985e-12
6.30606963617e-12
-2.42588307057e-14
-3.76397379552e-14
5.4625223989e-14
-2.16364467809e-13
-6.34320590501e-12
6.44032551997e-12
1.19536313605e-13
-5.49166847215e-14
-1.25980424983e-13
3.46231154656e-13
-3.21405857076e-13
8.91832584909e-14
1.26197248646e-12
-1.597091211e-13
-9.07073891718e-13
3.95858999442e-13
2.59080567394e-12
3.5775112047e-13
-1.22015642531e-13
-1.03179985163e-13
-7.74214854207e-14
-5.38483356653e-13
-9.01553806317e-13
-5.34979570139e-13
-3.35961296546e-14
1.72583243104e-13
-2.32507089094e-12
2.13683555547e-12
9.98850066574e-14
-2.03847548916e-14
-1.72124935971e-14
-1.30397712492e-14
1.75434085173e-15
1.51276787564e-13
-1.99647007426e-12
1.84134416244e-12
-1.26965804826e-14
8.35731675725e-15
2.07673651095e-15
4.35723112596e-15
3.15362812779e-14
3.21294955807e-13
-1.63305454726e-12
1.31024169721e-12
-1.137172088e-13
3.84937440053e-14
2.08990364325e-14
2.43059952553e-14
5.64359312298e-14
1.41218718204e-13
-2.77817395878e-13
2.07241538466e-13
-6.58833647085e-14
-6.11970018786e-14
-1.648329648e-14
-9.83069195619e-14
-6.98136967381e-15
6.42024296936e-14
3.47421247542e-14
2.28262187514e-14
1.14763408633e-14
-4.37672653146e-13
-1.07350002433e-12
1.4901342799e-12
-1.10736614863e-14
1.38645140547e-14
2.83140403099e-15
3.93976909083e-15
1.33408735786e-14
-9.96428934493e-14
-1.75292684085e-12
1.84072956825e-12
-3.03710916053e-14
1.32628879702e-14
7.90741417575e-15
7.70004341865e-15
8.59508601925e-15
1.9327026552e-14
-1.87573330438e-12
1.85056545071e-12
-2.3662677484e-14
8.55554591238e-15
6.31253390655e-15
6.04026650645e-15
1.00220953509e-14
3.58997446909e-14
-1.81428705334e-12
1.77230860086e-12
-3.29616454774e-14
1.32302979389e-14
7.04206994442e-15
8.74578838979e-15
8.98422122319e-15
-1.52018054832e-14
-5.65160542695e-13
6.14635275302e-13
-2.95906593791e-14
-1.36679995973e-14
-3.40135939542e-13
-2.87299014217e-13
5.50287443917e-12
1.20317696488e-12
1.97494903001e-14
-3.40025965102e-13
-3.7940312885e-13
-3.78935784617e-13
-3.5871174253e-13
-3.67974427869e-13
-5.57280551572e-12
5.31321824856e-12
9.63254758355e-13
2.30186792104e-14
-1.37579041458e-13
-1.8518520895e-13
-5.19172218356e-12
5.0950999839e-12
4.16837745681e-13
2.54870440906e-15
7.40884440381e-15
-1.605159281e-13
-4.98023769255e-12
4.76666406202e-12
3.77694358794e-13
-1.10136445598e-14
1.38477996891e-13
-3.26323278566e-13
-4.41697977754e-12
3.80913355438e-12
8.15246854462e-13
-1.95553495934e-14
2.52139819362e-13
-1.35070175621e-13
-2.89838885616e-12
1.77537575639e-12
-1.74221579565e-14
-1.49618208654e-13
-1.34926859554e-13
-1.49190652032e-13
4.26059402694e-13
3.02511358166e-13
4.26702162088e-13
3.01829136079e-13
-1.2856433636e-13
9.5298713266e-14
-4.13753816976e-13
1.63462473179e-12
-1.54460451804e-12
3.06057837471e-14
1.15902021513e-13
9.479062715e-14
1.15700301056e-13
-2.81435155678e-14
5.08369072721e-13
-3.08803011212e-12
4.03631267641e-12
-1.44610477228e-12
1.75966508319e-14
1.25610440323e-14
1.2918916917e-13
-4.70307226321e-12
4.98184386296e-12
-4.28156156922e-13
7.63434393736e-15
1.62380894032e-14
-1.83770623808e-14
-5.13014510291e-12
5.15730833298e-12
-2.40673805421e-14
-9.5687655673e-16
2.90247052584e-14
-5.77832672139e-14
-5.15101249358e-12
5.14584269069e-12
4.18969076531e-14
-7.96854278215e-15
5.98608329385e-15
3.87834387862e-14
-5.18955864275e-12
5.25183899792e-12
-9.74720945266e-14
-1.09326166482e-14
-2.0868179944e-15
5.79644869074e-15
-2.35518374745e-15
-3.22389194402e-13
-8.33568703757e-13
5.74766351074e-12
3.95043067439e-13
1.3251319946e-14
3.42934637254e-11
-2.89483036719e-17
-1.60447175675e-12
-1.08833141257e-12
-7.46516437214e-13
-1.08355317953e-12
-7.43915414085e-13
-6.8361717418e-12
-6.77517679858e-12
-6.83194683074e-12
-6.77098529534e-12
3.74216791145e-11
-2.85756737408e-17
-7.20083044946e-13
-4.52326284064e-13
-3.53963193738e-13
-4.5238071207e-13
-3.54819331385e-13
3.97221281665e-11
-8.35010956869e-18
-1.16885921534e-13
-4.68165109442e-13
-5.9047066707e-13
-4.69877336767e-13
-5.92668790532e-13
9.33630906919e-12
2.29795508746e-17
8.38609398778e-13
-1.14102350964e-12
-1.56104824576e-12
-1.14417889961e-12
-1.56458557939e-12
1.23156105821e-11
9.33579571862e-12
1.2314810084e-11
-2.82308809492e-12
4.86353325457e-13
8.75455621222e-12
2.9387058089e-12
-2.02042249676e-14
7.54829926475e-14
-7.72550963612e-13
-1.32462367102e-12
6.140020862e-13
1.44614175653e-12
-3.84487339359e-14
4.53840225609e-11
1.00029448388e-16
-2.56426229205e-12
3.53977670349e-12
4.0964680368e-12
3.53885029313e-12
4.09846889079e-12
-5.53516673555e-12
-2.21192180479e-11
-5.53578716765e-12
-2.21243955916e-11
3.93937148528e-11
1.0804692455e-16
-1.23947292649e-12
2.42114202498e-12
1.83949004077e-12
2.42513987882e-12
1.84355963099e-12
3.87843064948e-11
8.5483594759e-17
-7.28741463331e-13
7.08686485977e-13
3.5072387417e-13
7.1206009822e-13
3.53077681085e-13
3.95424634502e-11
7.7458175727e-17
-3.84468717204e-13
4.1654856799e-14
-2.69840882511e-14
4.29406220167e-14
-2.66459190655e-14
9.52321122676e-12
7.06078917533e-17
5.34442881918e-14
3.6938236055e-14
1.00062455563e-13
3.63410568418e-14
9.85158128959e-14
1.00384011297e-11
9.52572881386e-12
1.00400645208e-11
1.20933375324e-13
2.02287344768e-13
9.28789442293e-12
-7.73191021201e-14
-1.05959886786e-14
-3.22023793646e-13
8.98166683149e-19
5.70606851823e-12
-3.95050156823e-13
1.10045340404e-14
3.42934568278e-11
-1.08835872056e-12
-1.60448544594e-12
-6.77517481708e-12
-6.83618572971e-12
-6.770980018e-12
-6.83195866069e-12
-7.46528519398e-13
-1.08356807687e-12
-7.43925699296e-13
3.74216939868e-11
-4.52345322055e-13
-7.2007323978e-13
-3.53968493991e-13
-4.5238988572e-13
-3.54818916356e-13
3.97221427974e-11
-4.68174852069e-13
-1.16885331521e-13
-5.90471474854e-13
-4.69876851051e-13
-5.92660812737e-13
1.23156032775e-11
-1.14102000562e-12
8.38600622637e-13
-1.56102706874e-12
-1.14417128256e-12
-1.5645642485e-12
9.33632738754e-12
1.23148069407e-11
9.33580682004e-12
5.09940224053e-13
7.86281199831e-18
1.47652986664e-11
-2.93869938777e-12
-2.0945778666e-14
6.68029899101e-13
-4.03806796314e-18
-1.29537674374e-14
3.45491737953e-12
9.97402831339e-12
3.45451318185e-12
9.9767371706e-12
-1.93854366179e-11
-1.90824355158e-12
-2.15686090684e-12
-1.90826104744e-12
-2.15646792232e-12
6.69509921012e-15
-2.43063996796e-18
-1.332941581e-11
1.33269376263e-11
-4.21448494272e-15
-5.64885896953e-14
-3.87974040077e-19
-1.33894062123e-11
1.34195720804e-11
2.63231094858e-14
4.53839640296e-11
3.53982740872e-12
-2.56428370361e-12
-2.21192134115e-11
-5.53513187528e-12
-2.21243813436e-11
-5.53575920052e-12
4.0965279912e-12
3.53892848973e-12
4.09852870415e-12
3.93936879196e-11
2.42119037772e-12
-1.23948393322e-12
1.83952442121e-12
2.42520054176e-12
1.84360515806e-12
3.87842577419e-11
7.08714592096e-13
-7.28750629775e-13
3.50747100606e-13
7.12088081592e-13
3.53100887458e-13
3.954240589e-11
4.16744871357e-14
-3.84476515507e-13
-2.69587755631e-14
4.29658746569e-14
-2.66286700855e-14
1.00383859892e-11
3.69619901429e-14
5.34234939868e-14
9.52320681193e-12
1.0040045854e-11
9.52571846989e-12
1.00086495262e-13
3.63653717605e-14
9.85313079982e-14
1.16010224792e-13
-1.77549680486e-18
9.85479986985e-12
7.73113790843e-14
-9.70719011924e-15
-3.14604516382e-13
8.33567467748e-13
5.66719435025e-12
-1.20318189134e-12
1.70245896852e-14
-4.3174528812e-13
-6.26786585008e-12
6.54434388707e-12
-9.63250787756e-13
3.01785625205e-14
-1.90711203235e-13
-6.69963537612e-12
6.84570798164e-12
-4.16844459707e-13
9.13456766007e-15
-1.26743622862e-14
-6.89593041037e-12
6.82743335462e-12
-3.77699758638e-13
-9.30404134134e-15
1.6850863092e-13
-6.69287071297e-12
6.22030349217e-12
-8.15247759717e-13
-2.17202148494e-14
3.68563716488e-13
-5.54244869278e-12
-1.77536193798e-12
-2.02490178032e-14
2.82308645081e-12
8.82229463507e-13
1.19090990679e-12
8.82334840911e-13
1.19093595895e-12
3.96753338936e-14
7.72549286025e-13
-5.10682656334e-13
-2.81406397649e-13
-2.01355659499e-14
-2.65226782758e-13
-8.71664100032e-13
3.10396804398e-12
1.5446729306e-12
2.8116562537e-14
-7.31472661921e-14
-5.19470014379e-12
6.2278717483e-12
1.44614630759e-12
1.49829770444e-14
-1.07946469717e-14
-7.03754553143e-12
7.32067854795e-12
4.2818568886e-13
8.16046589675e-15
-5.40193298897e-15
-7.42548625222e-12
7.44828447266e-12
2.40897987773e-14
1.77895446237e-16
2.98128547953e-14
-7.45636622318e-12
7.51326019087e-12
-4.18695781016e-14
-7.87767266505e-15
5.96780281988e-14
-2.02299891421e-13
-7.52841124615e-12
7.58509002865e-12
9.74758448366e-14
-1.15327640852e-14
-2.68297419949e-14
3.40134606856e-13
-3.17930211864e-13
1.37772402303e-14
1.2408484728e-12
-8.74686308338e-13
-1.88369084003e-13
3.67978419232e-13
2.58684020972e-12
6.79310359713e-15
-5.14561267681e-13
-8.71108255313e-13
-5.12887181303e-13
-6.00988388065e-14
1.85196042666e-13
-2.44290930323e-12
2.32218739885e-12
-4.37529947061e-15
1.04428273546e-14
1.6052456187e-13
-2.2113230462e-12
2.04912033816e-12
-8.76468118661e-15
7.33662790528e-14
3.26327565528e-13
-1.8071740636e-12
1.4195172823e-12
-1.20370632805e-14
3.46028265482e-14
1.35070702563e-13
-2.92757842817e-13
2.12981281431e-13
-7.07561937638e-14
-1.91424169877e-14
-1.83457951105e-14
-9.53071857463e-14
8.31637359259e-15
5.46722788527e-14
3.86554588983e-14
1.20078977318e-14
-3.1045171643e-15
-5.08385783765e-13
-1.21616008516e-12
1.71687215125e-12
1.07782348357e-14
1.41988607439e-14
-1.2919541204e-13
-2.04813929173e-12
2.15897040952e-12
4.16543349763e-15
1.39839948098e-14
1.83782790459e-14
-2.20810508434e-12
2.17696459959e-12
-1.22178910103e-15
2.1016159603e-14
5.77862922097e-14
-2.12570785924e-12
2.05200362903e-12
-5.09822159857e-15
8.60814323372e-15
-5.99061175624e-15
-6.52188957337e-13
7.02263844382e-13
-4.75608206536e-14
-5.13337150068e-15
-3.37426960764e-13
2.40182094841e-13
5.55046759436e-12
1.18642309568e-12
-5.49988530356e-13
-3.36810267877e-13
-3.76567320986e-13
-3.7627859129e-13
3.12703055303e-13
-3.81801035035e-13
-5.61682185014e-12
5.32153762574e-12
9.65194516478e-13
-6.00812312335e-13
1.35028961079e-13
-1.91770590764e-13
-5.14977091122e-12
5.01326915578e-12
4.24558534355e-13
-2.3131514921e-13
1.51577797127e-14
-1.65204292129e-13
-4.87322331349e-12
4.65454964544e-12
3.85551319386e-13
-1.68311389038e-14
-9.94196501158e-14
-3.35106490133e-13
-4.31623413533e-12
3.74172780615e-12
8.30569261403e-13
1.78463208048e-13
-2.16143381428e-13
-1.41222150895e-13
-2.87315530728e-12
1.82352115154e-12
3.92565160978e-13
-1.54771577677e-13
-1.42062711154e-13
-1.56191526612e-13
4.29501749971e-13
3.04057135609e-13
4.27515185979e-13
3.06387065431e-13
6.86766949375e-14
9.72831466401e-14
-4.25249052983e-13
1.61148059174e-12
-1.56285313807e-12
-1.22487039145e-13
1.18108003702e-13
9.7400230541e-14
1.17640084784e-13
-6.09381729997e-15
5.01374914146e-13
-3.00730977191e-12
3.91000391067e-12
-1.41456129161e-12
1.6586055995e-14
-2.71759575371e-14
1.23270957686e-13
-4.53639210472e-12
4.80008183786e-12
-4.01709165464e-13
4.19244321505e-14
-1.40631946863e-14
-2.00887410505e-14
-4.93779073085e-12
4.96480514131e-12
-1.52057534426e-14
2.23432787171e-14
-1.30194514265e-14
-5.63324123863e-14
-4.96084058378e-12
4.96332656206e-12
4.44903851444e-14
2.23755004084e-14
4.87223931895e-15
-1.61616170545e-14
-5.0129705791e-12
5.08367814822e-12
-7.96851667246e-14
2.15651831331e-14
-3.57450748407e-15
5.77162545387e-15
-3.49566214196e-15
2.95827996837e-13
-8.16569474198e-13
5.78203075343e-12
3.86145175857e-13
-6.47434451962e-13
3.26719478484e-11
-3.9489400366e-17
-1.01921571428e-12
-1.09225466952e-12
-7.54222660597e-13
-1.07824795012e-12
-7.78098526929e-13
-6.82137215159e-12
-6.7605011272e-12
-6.81578322452e-12
-6.75626433425e-12
-7.09600914424e-13
-1.01459661413e-12
-6.76273571235e-13
3.46581185212e-11
-1.78675961803e-17
-3.28840951854e-13
-4.63916360987e-13
-3.66806230711e-13
-4.62508337285e-13
-3.88559895781e-13
-2.05062253244e-13
-3.16919156543e-13
-1.73648070867e-13
3.67156041183e-11
-5.76105334828e-18
-5.82583854675e-14
-4.79326856838e-13
-6.06178344951e-13
-4.6985382462e-13
-6.10589845015e-13
2.00708622242e-14
-3.03069031184e-14
6.00612431221e-14
9.0164499034e-12
2.83392324423e-17
3.05886604315e-13
-1.15378373772e-12
-1.58058288715e-12
-1.13457368806e-12
-1.5841345668e-12
5.6608012344e-13
4.60365046593e-13
6.22771697795e-13
1.19173872714e-11
8.67718530443e-12
1.14411216519e-11
-2.87221574961e-12
-4.4717362091e-13
8.61583943251e-12
2.95064625241e-12
7.69371093707e-13
-7.2512971343e-14
-7.76804895016e-13
-1.3203417024e-12
6.1294612166e-13
1.44927098129e-12
1.07446445562e-13
4.39692104634e-11
1.09993403085e-16
-1.06125305909e-12
3.55784907761e-12
4.05684154183e-12
3.54588347938e-12
3.8906573976e-12
-5.79132170126e-12
-2.24092807434e-11
-6.26576113055e-12
-2.2362089044e-11
-2.60990111793e-13
-2.21290676698e-12
-1.2212207173e-12
3.57603020203e-11
1.22678724319e-16
-3.53914124527e-14
2.30104485607e-12
1.69679168557e-12
2.09409981433e-12
1.48127171955e-12
-9.65902098951e-14
-2.45621371595e-13
-2.26312608298e-13
3.43067136295e-11
9.01960562068e-17
-1.73559259681e-13
6.2721955194e-13
2.89467330778e-13
5.05356226563e-13
2.0836783642e-13
-2.31895698317e-13
-2.33929013317e-13
-2.66252239158e-13
3.45894571543e-11
8.10868977155e-17
-1.52468872153e-13
2.40795997781e-14
-3.86580804625e-14
-1.47759747437e-14
-4.94921839978e-14
-1.23179622718e-13
-1.720217602e-13
-1.40730759594e-13
8.77413302903e-12
7.30197763418e-17
3.45493879221e-16
2.69853033298e-14
7.24843393544e-14
6.40764121475e-15
8.51836273703e-14
9.23466642899e-12
7.98944110455e-12
8.37136516804e-12
4.51414938412e-14
6.31966564676e-15
3.0401148847e-14
-1.0046147806e-13
1.55758281798e-13
8.75293499484e-12
-6.55316749261e-14
3.14556005798e-14
3.00746772921e-13
-3.21454535366e-19
5.74008039317e-12
-3.86153229903e-13
-6.54673614763e-13
3.26719510304e-11
-1.0922688708e-12
-1.01459149394e-12
-6.76049413025e-12
-6.82137843126e-12
-6.75625732132e-12
-6.81579023203e-12
-7.54230362269e-13
-1.0782582105e-12
-7.7810469402e-13
-6.76269919942e-13
-1.019230511e-12
-7.09605483588e-13
3.46581235825e-11
-4.63926441032e-13
-3.16913122873e-13
-3.66805039943e-13
-4.62517210476e-13
-3.8856442741e-13
-1.73646230086e-13
-3.28849138003e-13
-2.05065690284e-13
3.67156308471e-11
-4.79327033983e-13
-3.03059684172e-14
-6.06171265588e-13
-4.6985765749e-13
-6.10583971063e-13
6.00575445154e-14
-5.82638251902e-14
2.00750183678e-14
1.19173840145e-11
-1.15377280077e-12
4.60368070497e-13
-1.58056060685e-12
-1.13456544144e-12
-1.58411415925e-12
6.22770030416e-13
3.05884346825e-13
5.66093650445e-13
9.01647021174e-12
1.14411236167e-11
8.67720770077e-12
-4.69731291335e-13
-2.25015252465e-18
1.45443327386e-11
-2.95063853136e-12
7.93429425241e-13
-6.43239215516e-13