/*--------------------------------*- C++ -*----------------------------------*\
  =========                 |
  \\      /  F ield         | OpenFOAM: The Open Source CFD Toolbox
   \\    /   O peration     | Website:  https://openfoam.org
    \\  /    A nd           | Version:  7
     \\/     M anipulation  |
\*---------------------------------------------------------------------------*/
FoamFile
{
    version     2.0;
    format      ascii;
    class       volVectorField;
    location    "4";
    object      U;
}
// * * * * * * * * * * * * * * * * * * * * * * * * * * * * * * * * * * * * * //

dimensions      [0 1 -1 0 0 0 0];

internalField   nonuniform List<vector> 
5218
(
(0.0392513837448 0.00617821281195 0.00608591186814)
(0.0264666348129 0.0044806164346 0.00164613182032)
(0.0194932559945 0.00105132098593 0.000333275388734)
(0.0170302324915 0.00087689655397 -0.000103234228884)
(0.0153188726717 0.00236679608924 -0.000508356137051)
(0.0109378152271 0.00672762694503 -0.00066173759308)
(0.00495963267064 -0.00420093392128 -0.000725112665937)
(0.0144533275382 -0.00183937811894 -0.000278364907891)
(0.0169742572576 9.11921264475e-05 1.70166628195e-05)
(0.0170620396569 0.000306795533537 3.81877931601e-06)
(0.0170701231463 -3.36252013107e-05 -8.07957774101e-05)
(0.0179666446699 -0.000774756871465 0.000503093971643)
(0.0387298629833 0.0012813701304 0.00595235440926)
(0.0284864892558 0.00327607033806 0.00180826190071)
(0.0253025530276 0.00162796380586 0.000489429682974)
(0.0251501106048 0.00181629023599 1.21281316725e-05)
(0.0282407441565 0.00532861072297 -0.000741801026682)
(0.0389031935244 0.0197744627443 -0.00284722993273)
(0.0132180344327 0.0200173853732 0.000207820202779)
(0.0242916140232 -0.026240302789 0.0010724027825)
(0.0290368174068 -0.0072997498147 0.000431293811469)
(0.0259916217198 -0.000862412146408 0.000605986087232)
(0.0244341675126 0.000327722635872 0.000544474014742)
(0.0241327173796 6.39939495951e-05 8.85119255893e-05)
(0.0248396072696 -0.000492211452834 0.000517148094225)
(0.0386649667553 -0.000149266084067 0.00597304568275)
(0.0281710174864 -0.00110654925485 0.00171804121769)
(0.0260256785238 -0.000579888075562 0.000429621769909)
(0.0269890174096 -0.000719334752907 -3.47881788379e-05)
(0.0335635901617 -0.00245089960621 -0.000879492427923)
(0.0601212330403 -0.0106556863889 -0.00234064191653)
(0.15826432303 -0.0706587059908 -0.00334288689636)
(0.296705268692 -0.00731431317307 0.000710886061351)
(0.260981633182 0.0130802902486 0.0102165581742)
(0.0633008916188 0.0275068938555 0.00148637333013)
(0.0395503722152 0.00463071316226 0.000969256299026)
(0.0284822948535 0.000532788440396 0.000905398433744)
(0.0255722214613 -0.00011931017459 0.00072427297633)
(0.0251224222961 -4.82963083169e-05 0.000169979780424)
(0.0257694438809 0.000129361288427 0.000578648346345)
(0.0387975570944 -0.00188375142704 0.00593275462092)
(0.02853284792 -0.00466368265187 0.00179554390559)
(0.0235314368563 -0.00194118277872 0.000414430589449)
(0.0218858491134 -0.00188227133025 -0.000110677117497)
(0.0218995469847 -0.00476333298897 -0.000683132933212)
(0.0228680413555 -0.0139842471631 -0.00113909607552)
(0.00365254849941 -0.00773756066566 0.000318934526073)
(0.00975655551314 0.0107597353004 -0.000761794611102)
(0.0208589124647 0.00468304815638 -0.000228624036109)
(0.0221252023611 0.000496432124787 0.000215510755514)
(0.0217267298223 -0.000375942982603 0.000192590722201)
(0.0216582796088 -6.81902504065e-07 -4.39110957587e-05)
(0.022453231109 0.000744027301898 0.000632875077503)
(0.0388588492043 -0.00885887216467 0.0062527451549)
(0.0120389911862 -0.00199395400876 0.000158775574997)
(0.00707178744816 -0.000387637382285 -9.14935053993e-07)
(0.00610551597314 -0.00027006182406 -5.82393406341e-05)
(0.00540883449928 -0.00050498644055 -0.000176767359806)
(0.00337008121447 -0.00139563796347 -0.000358269639634)
(0.000955559270203 0.00058002558222 -0.000158953135646)
(0.00459868853017 0.000153910455124 2.11788008053e-05)
(0.00616403754738 -0.000261489979158 1.55859540992e-05)
(0.00633464145164 -0.000203989322875 7.60468439764e-07)
(0.0063076902648 -6.78387617326e-05 -1.8925768067e-05)
(0.00694080652869 0.000215696979533 0.000132918564712)
(0.0521353624443 0.0149330110264 0.00741383704052)
(0.0506840775014 0.00846662469155 0.00726679561278)
(0.0464660973159 0.00294621396682 0.00236060763855)
(0.0434000494953 0.00235297500165 -0.000218769166666)
(0.0384914102995 0.00494963076332 -0.00260752540262)
(0.0246709825592 0.0108289938218 -0.00450719916465)
(0.0103904903723 -0.00849490143609 0.00113534212375)
(0.0353137813508 -0.00829920202294 -0.000388100380678)
(0.0444725028551 -0.00184649126696 -0.000451662564583)
(0.0460215728531 0.000494713579746 -0.000310636529473)
(0.0465271886398 0.000385252655547 -0.000588896464045)
(0.0492495393062 -0.00095202176592 -0.000575821354511)
(0.0517742734009 0.0054682248046 0.0080870019005)
(0.0736783227626 0.00651911655995 0.00874597538726)
(0.0822136746172 0.00367373184686 0.00361323631872)
(0.0883284704609 0.00445010740031 0.000346955080641)
(0.0994376693973 0.0122579357096 -0.0054512340456)
(0.0865275546654 0.032708909724 -0.00966315519138)
(0.0340271548357 0.0409048311523 -0.00744812839063)
(0.107191357905 -0.0576400352683 0.0150610036689)
(0.103296706245 -0.0248138706753 0.00404537415441)
(0.101334849366 -0.00754108036904 0.00259618549682)
(0.0941756759207 -0.00140436525459 0.00151223547205)
(0.0948920278399 -0.00133153657186 -0.00108763372604)
(0.082490078753 -0.00202902248294 -0.00142034870344)
(0.0514894425604 -0.0016907709146 0.00805720396678)
(0.0736782949075 -0.00651934647007 0.00874603106486)
(0.0822136380809 -0.00367405282995 0.00361329258998)
(0.0883284192329 -0.00445046022093 0.000347015971828)
(0.0994376864137 -0.012258212969 -0.00545118098791)
(0.126837808594 -0.0167152566079 -0.00991053974926)
(0.229101084636 -0.100855196007 -0.0144616462703)
(0.514068703829 -0.0251873046806 0.000679359784285)
(0.472911742388 0.0203299692064 0.0111823253456)
(0.107191122608 0.0576404584674 0.0150609601679)
(0.103296618209 0.0248141278417 0.00404540444485)
(0.101334735264 0.00754107865703 0.00259625558082)
(0.0941755210036 0.00140429898099 0.0015123100438)
(0.0948918971172 0.00133149053333 -0.00108756610022)
(0.0873567139694 0.000947884943766 -0.00112009993461)
(0.0518582247795 -0.00940648048058 0.00792649517745)
(0.0599772575292 -0.0114983156556 0.00857781421504)
(0.0606483518205 -0.00592376873966 0.00323094048844)
(0.0602145393946 -0.00513345479119 9.61525327716e-05)
(0.0586849527728 -0.00983849407564 -0.00320347138039)
(0.0514275005195 -0.0223048425256 -0.007032545214)
(0.0109091263188 -0.0167303555874 -0.00354597518988)
(0.0215992542409 0.015069381501 0.00393090360868)
(0.0549163955874 0.0171066509545 0.000103378291694)
(0.0643258150818 0.00550492325888 -4.54438954527e-05)
(0.0645149140836 0.000265494363607 0.000177234583757)
(0.0652417809764 1.65749483433e-05 -0.000493429743059)
(0.0680982970771 0.00277648395646 -0.000905794598865)
(0.0495782933978 -0.0129901033745 0.00394787368203)
(0.0263869190443 -0.000965140039571 0.00443958527682)
(0.0214870966853 -0.000347563018459 0.000994242017895)
(0.0192288119762 -0.000144052050601 -0.000221055188594)
(0.0158241481772 -0.000472752820575 -0.0013666260318)
(0.0114670848846 -0.00374036816257 -0.00237838432176)
(0.00197863268118 0.00175905599163 0.000671576726119)
(0.0152917716756 0.000892238585812 -0.000357338983515)
(0.0200106146252 -0.000305500543151 -0.000411248096885)
(0.0204235873231 -0.000348762229867 -0.000350586537764)
(0.0199822408065 -0.000193828097528 -0.000546555710433)
(0.0259632852766 -0.000787894414513 -0.000633193237601)
(0.0513723945272 0.0146721875506 0.0013496661744)
(0.0509804718954 0.00808084194534 0.00185389376543)
(0.0507403045037 0.00290888661653 0.000732288633588)
(0.0488145865994 0.00245608439524 -0.000105974144002)
(0.0428551733011 0.00504339846529 -0.000859411997519)
(0.0259863344468 0.0102380153479 -0.00134321018745)
(0.00956383934917 -0.00818735963201 0.000815929643396)
(0.039763220971 -0.0100860156571 0.000178736827706)
(0.0514773667016 -0.00272306559181 -6.87063938356e-05)
(0.0535081363675 0.0005026523096 -0.000120141498586)
(0.0538981592051 0.000762603947469 -0.000231940553992)
(0.0562135063703 -0.000737585665933 -0.000307005203743)
(0.051038714058 0.00548744105598 0.00151610637262)
(0.0754008247364 0.00639505309237 0.000281448624286)
(0.0879253082212 0.00362324564474 0.000126185371735)
(0.0959602547273 0.00445640083416 -5.2226833311e-05)
(0.106608862898 0.0123205411685 -0.000195155084546)
(0.0932700610441 0.0331613317045 -0.00240811184469)
(0.0343499155714 0.0403124006217 -0.00214278581025)
(0.104858117902 -0.0583413567107 0.000221452132701)
(0.109190075039 -0.0273399988593 2.95023983166e-05)
(0.11326839774 -0.00932891738097 -1.10469512193e-05)
(0.106972089235 -0.00212411387507 -4.22442057561e-05)
(0.108199246993 -0.00170825777625 -9.10248599327e-05)
(0.0984082213967 -0.00196348996133 -0.000477776033312)
(0.0506934177432 -0.00169097044923 0.00150435822036)
(0.0754008063065 -0.00639520477733 0.000281489144992)
(0.0879252401327 -0.00362342931038 0.000126235096414)
(0.0959602155944 -0.00445661246861 -5.21683362282e-05)
(0.106608798161 -0.0123207339906 -0.000195104147232)
(0.136356991917 -0.0170059833681 -0.00250825986817)
(0.231453060668 -0.101411508165 -0.00320689048289)
(0.520268190576 -0.0258032369123 -4.78507471111e-06)
(0.476132187504 0.0202980198767 0.00172703621789)
(0.104857870572 0.0583419071185 0.000221474998568)
(0.10919002007 0.0273404482491 2.95626353843e-05)
(0.113268311737 0.00932910052305 -1.09772232533e-05)
(0.106971907235 0.00212418467032 -4.21823289117e-05)
(0.108199052183 0.00170825002969 -9.10040771024e-05)
(0.104850342489 0.0010032065292 -0.000412825791989)
(0.0511541679797 -0.00935661033119 0.00148343946511)
(0.061540868651 -0.0111029285186 0.00228189076742)
(0.0673258236304 -0.00599797165288 0.00102325047963)
(0.068899230904 -0.00535350961805 9.5905603824e-06)
(0.0664505438399 -0.0103037517794 -0.000998462646721)
(0.0551211746966 -0.0218312966387 -0.00197403987113)
(0.0108760839646 -0.016065860605 -0.00109777440682)
(0.0197415822341 0.0140689724299 0.00146302554266)
(0.0618377131087 0.0197331069296 0.000423104388244)
(0.0756307935286 0.00769446992815 3.42444541095e-05)
(0.076480908992 0.0010329180904 -1.56316944193e-05)
(0.0771952853564 -3.1910947227e-05 -0.000192994266409)
(0.0797422970763 0.00275361376807 -0.000422905117433)
(0.0492798231107 -0.0127949890145 0.000738440817678)
(0.0256693777451 -0.000725349741721 0.000922170031248)
(0.0231751999239 -0.000372817039104 0.000293338704752)
(0.0213799214372 -9.7993037631e-05 -0.000105796753053)
(0.0174277209372 -0.00032209939234 -0.000456752369406)
(0.0121772419209 -0.00379003181156 -0.00104664356071)
(0.0012790619835 0.00157594242858 0.00060134450198)
(0.0175031543174 0.00112415876761 1.75477304124e-05)
(0.023252305331 -0.000382556269447 -7.89903711487e-05)
(0.0237604835521 -0.000484418729647 -0.000104071910656)
(0.0230580616286 -0.000302164288696 -0.00016143036298)
(0.0297719633213 -0.00145587555863 -0.000280468518975)
(0.0516349795022 0.0145106306376 -0.00350265619653)
(0.0512879726598 0.00816756104591 -0.00438441247866)
(0.0500276133046 0.00300189649352 -0.00177985009914)
(0.0476753007324 0.00251532198701 -3.35687470141e-05)
(0.0419267820859 0.00518610652411 0.00161818083973)
(0.0258100424562 0.0106846996819 0.00296400041427)
(0.00953575827938 -0.00845890687795 -0.000835793659017)
(0.0385987945209 -0.00980711734497 0.000191480504901)
(0.0496671934485 -0.00252019231607 0.000362440636435)
(0.051601572603 0.000503119906335 0.000193565221399)
(0.052059493225 0.000699726213133 0.0002724067947)
(0.0544824740925 -0.000605754415572 0.000260348170024)
(0.0512726955932 0.00536989844724 -0.0042254998095)
(0.0734092592177 0.00634638303833 -0.00824822835901)
(0.0820861696852 0.00364398125938 -0.00342447771562)
(0.0882865793655 0.00447967937338 -0.000457796594804)
(0.0993755026237 0.0123545981365 0.00508503588955)
(0.0907792597577 0.0334287965606 0.00640956423644)
(0.0341234346727 0.0404958531934 0.00340954054403)
(0.107520057916 -0.0576992798337 -0.0145933724205)
(0.103114764624 -0.024865452096 -0.00425683441156)
(0.101441630106 -0.00758763214467 -0.00266568204947)
(0.0943311926894 -0.00141868889307 -0.00157938650823)
(0.0950289361502 -0.00130256362252 0.0009445487292)
(0.0928774808582 -0.00171291738893 0.00122759293864)
(0.0509450145304 -0.00165605746069 -0.00425719264576)
(0.0734092051626 -0.00634642364134 -0.00824819770727)
(0.0820861045355 -0.00364402763932 -0.00342442165052)
(0.0882865529312 -0.00447974681014 -0.000457739227739)
(0.0993755144482 -0.0123546202686 0.00508509983569)
(0.133039766967 -0.0171181813473 0.00667629690534)
(0.230886931666 -0.101361048756 0.00880192206209)
(0.519515950492 -0.0257496912945 -0.000143740850187)
(0.476176928208 0.0203043750103 -0.0032817058084)
(0.107519961986 0.0576999139965 -0.0145933576896)
(0.103114740706 0.0248660411702 -0.00425680141376)
(0.101441513858 0.00758803960233 -0.00266560317478)
(0.0943311025502 0.00141889883037 -0.00157934341468)
(0.0950288341273 0.00130269180179 0.00094458919634)
(0.0987023406308 0.000872243328962 0.00108826018194)
(0.0514013295031 -0.00918797581678 -0.00402293775287)
(0.0614505890379 -0.0109211497748 -0.00532690919297)
(0.0657269835172 -0.00594090031036 -0.00241807320608)
(0.0665421036663 -0.00539392545037 -0.000300723786381)
(0.0642441591632 -0.0105666900121 0.00208109469858)
(0.0542294919041 -0.0224563557635 0.00466488270126)
(0.0108656626355 -0.0162176203639 0.0016978087548)
(0.020525026262 0.0147542599174 -0.00341762532135)
(0.0599983879911 0.0193909681252 -0.000571288928027)
(0.072103505234 0.00724202852755 0.000139007557526)
(0.0726633766888 0.000851441714399 -8.26918279587e-05)
(0.0734174936795 -0.000116648946225 0.000313641760607)
(0.0763186484249 0.00236566874685 0.000557016053347)
(0.0493410406716 -0.012683066726 -0.00106314655727)
(0.0260901522055 -0.000779911509825 -0.00242003739949)
(0.023134788886 -0.000381567872343 -0.000856018526928)
(0.0211449007347 -0.000113308043521 3.19814173393e-05)
(0.0172826974305 -0.000378011618142 0.000787906772252)
(0.0121330424767 -0.00399115785185 0.00133123288691)
(0.00124501674776 0.00166779619992 -0.000302120114569)
(0.0170987311488 0.00112160664743 0.000371982286171)
(0.0226794992669 -0.000365303728531 0.000296463461485)
(0.0232030962529 -0.000458527335576 0.000176341612712)
(0.0225750834018 -0.000292826049699 0.000214881480949)
(0.0294617911758 -0.00148893469329 0.000193716601489)
(0.053254149785 0.0140141453849 -0.0128750729128)
(0.0453315574065 0.00759470835773 -0.00705720703118)
(0.0388899692148 0.00260167648255 -0.00190298937182)
(0.0354340964811 0.00209458120782 7.79506691078e-05)
(0.0315453166462 0.00470552874108 0.0018746294413)
(0.0210903090263 0.0109425355965 0.00363911200342)
(0.00871723231157 -0.00801510913386 -0.000137093345991)
(0.0287656315777 -0.00630639564161 0.000691571537259)
(0.0356862253619 -0.00107737635194 0.000367260472866)
(0.0368358676681 0.000470376016539 0.00015004548995)
(0.0372268882032 0.000282809023901 0.000267056836085)
(0.0398799694675 -0.000148039057028 -0.000195810267061)
(0.0520373954773 0.00455970445791 -0.0131594087495)
(0.0529774695289 0.00598554465852 -0.00952644456347)
(0.0533577357304 0.00342029374957 -0.00377862309848)
(0.0549683007753 0.00376004538878 -0.00127535792869)
(0.0597713929452 0.00950641898154 0.00137328775155)
(0.0716594365809 0.0308230396615 0.00956074093597)
(0.0321577723259 0.0408273854927 0.0081162847855)
(0.0477769060383 -0.0452378082431 -0.0133844726294)
(0.0620585916214 -0.0190254385344 -0.00167763987307)
(0.0599615276636 -0.00456277850422 -0.000811960317468)
(0.057015831969 -0.000217300499832 -0.00103724352654)
(0.0570508622836 -7.69350879528e-05 -0.00012907392727)
(0.0593772496186 -0.000995414639219 0.000955475102987)
(0.0517502743954 -0.00140872691037 -0.0132168957801)
(0.0529223443141 -0.00209835397877 -0.00909805956752)
(0.0553617585767 -0.00134575394348 -0.00358971068902)
(0.0590773473731 -0.00156976496297 -0.000937621565078)
(0.0691465751315 -0.00433585854559 0.00277840571718)
(0.105468657808 -0.0160550969986 0.00983926040786)
(0.21721733551 -0.0972626190667 0.0180194779442)
(0.509070537848 -0.0245604900531 -0.00136161942038)
(0.466809037863 0.0201766296143 -0.0158963774155)
(0.122715796688 0.0489273405538 -0.0238349175274)
(0.0815933739167 0.0117306334321 -0.00677196753921)
(0.0662491622889 0.0027571013962 -0.00199792295817)
(0.0604939869314 0.000315877772495 -0.00135032747826)
(0.0600897637843 0.000145607256817 -0.000342110361931)
(0.0623063018077 0.000325457125139 0.000758219313509)
(0.052486501668 -0.00821459709475 -0.0129674140788)
(0.0516603485195 -0.00822554309656 -0.00798210215376)
(0.0486390724906 -0.00408094503019 -0.00244193593549)
(0.0470014734141 -0.00396639338971 -0.000124750941844)
(0.0460197513922 -0.00884323761024 0.00232075239213)
(0.0431283762065 -0.0221690348845 0.00619281327743)
(0.0106163133456 -0.0170340513471 0.00365433826166)
(0.0177790505127 0.0180409280869 -0.00244335671653)
(0.0430878208596 0.0133403684919 0.00043760958486)
(0.0483358029251 0.00317858042707 -5.7663130673e-05)
(0.0484271222824 -0.000265477977535 -0.000372847641696)
(0.0488061787432 -0.000141168279206 7.6023458475e-05)
(0.0519225433113 0.00117954063298 0.000101178343617)
(0.0498724438663 -0.0124073494793 -0.00554355570256)
(0.026298710972 -0.00168634593035 -0.00450144297962)
(0.0196128828457 -0.000383547855886 -0.000905393340039)
(0.0169440244709 -0.000168955601028 3.40788512273e-05)
(0.0139494642455 -0.000547380958054 0.000850844566568)
(0.0107013919787 -0.00420686632595 0.00183169437103)
(0.00157543275734 0.00187913473702 -0.000295752951984)
(0.013225973402 0.000723289084758 0.000617879734543)
(0.0172645054843 -0.000282740227404 0.000407610427902)
(0.0176400104248 -0.000290165716268 0.000237139628807)
(0.0174368698022 -0.000108212408763 0.000302218657258)
(0.017967667236 -0.000439448808812 0.000324682606611)
(0.0498724306824 0.0124074010329 -0.00554357218827)
(0.0373271049605 0.0042215428068 -0.00740835627339)
(0.038883395617 0.00861116507604 -0.00624927703006)
(0.0160122530835 0.00271477955313 -0.000546079375644)
(0.026298800864 0.00168638542289 -0.00450149591512)
(0.021936579448 0.000780012121785 -0.00199862985549)
(0.0120931412275 0.00178377353104 -0.000147209466232)
(0.00782597882804 5.30682800365e-05 1.9117923329e-05)
(0.019612923323 0.00038354566905 -0.00090541620177)
(0.0181019728805 0.000205313896901 -0.000334255953201)
(0.00733093421675 0.000398512881242 2.32518401936e-05)
(0.00649099631996 -3.76571136589e-05 7.0033738969e-05)
(0.0169440213188 0.000168977486404 3.40477698728e-05)
(0.0157106725752 0.000255247585249 0.000411934548917)
(0.00633485932998 0.000315376274289 5.05549997407e-05)
(0.00577703034499 0.000177420248472 0.000164731945815)
(0.0139494391995 0.000547397595138 0.000850734794642)
(0.0112219599428 0.00112124618312 0.00145387202294)
(0.00555801206279 0.000611230316911 0.000158204717891)
(0.00431542466616 0.000971701690076 0.000377765204993)
(0.0107013854534 0.00420683634828 0.00183166672126)
(0.00345933778799 0.00155333427834 0.000347888577907)
(0.00022431949681 -3.69152980714e-05 -0.000541738204106)
(4.52192196402e-05 -0.000177087158673 8.97026478711e-05)
(0.00157545983722 -0.00187894165682 -0.000295698733936)
(0.00864254424579 -0.00170005736359 0.000372070479977)
(0.000657414023181 -0.000743382104693 9.74994346664e-05)
(0.00368350840755 -0.000970958464879 -1.55615298998e-05)
(0.0132260301729 -0.000723201358532 0.000617867247194)
(0.016027100878 -7.04714960721e-05 0.000603374386652)
(0.00465304972783 -0.00029128040461 -8.2358960452e-05)
(0.00616831395551 -0.000193337015969 4.9338383046e-05)
(0.0172645934994 0.000282778300946 0.000407582056701)
(0.0176299792552 0.000322109209882 0.000332979821632)
(0.00638244758738 0.000223337215586 -5.27609766814e-05)
(0.00661748629796 4.13954601172e-06 4.76986882124e-05)
(0.017640065296 0.000290202315112 0.000237027600133)
(0.0175000112479 0.000187326743021 0.00023739791871)
(0.00661101930481 0.00022083385989 -2.39983164991e-05)
(0.00653866985238 -3.59243387505e-05 5.64417211734e-05)
(0.0174368935995 0.000108240865007 0.000302186464523)
(0.0176620993651 0.000198744313011 0.000516738544609)
(0.00654152068668 0.000122587208478 -1.04670363936e-05)
(0.00683603067577 -0.000135628144578 4.15650656907e-05)
(0.0179676876051 0.000439489431075 0.000324692741693)
(0.0253350809954 -8.81012236637e-05 -0.000221689354057)
(0.00715787312369 -5.78098883299e-05 -0.00010103469008)
(0.00751149419787 -0.000131828422225 -0.000131790267257)
(0.00241376222468 0.00278490373363 0.00105256389549)
(0.0431283319229 0.022169023132 0.00619271547124)
(0.0280061238325 0.0278105976954 0.005796212537)
(0.0110651028827 0.00695120025022 0.000644596896243)
(0.00117251615669 0.0012501053858 -4.64226389145e-05)
(0.0229252526441 0.0141846751949 0.00112520531291)
(0.0103540415607 0.0115284594708 0.00134402438243)
(0.0106162322625 0.0170340471492 0.0036543326418)
(0.00365580299208 0.00776025908914 -0.000319008965493)
(0.000826823493019 -0.00134946353572 -0.000666826261711)
(-0.00256608458161 -0.00506265371976 -0.00524784439082)
(0.000378595490086 -0.000330107651445 0.000311400845829)
(-0.000221139532911 -0.00290707471536 0.000780807645671)
(0.217217298251 0.097262694841 0.0180194957945)
(0.509564066821 0.0727976677373 0.00490778037855)
(0.0132208398942 0.0200477757508 -0.000209232600791)
(0.158207247599 0.0706630058602 0.00332637141477)
(0.29925193855 0.0313324622439 -0.00110458944033)
(0.509070485708 0.0245603990719 -0.001361748518)
(0.509279527292 -0.000894013948336 -0.0110243961094)
(0.296596067573 0.00731230415092 -0.000713153152383)
(0.283102926453 -0.00145706514404 -0.00258385619653)
(0.00103718917001 -0.017623470037 -0.0155605555963)
(0.466809071462 -0.02017658919 -0.0158964400418)
(0.196927386922 -0.0869409069075 -0.0350317935164)
(-0.00123138188692 -0.00928188654186 -0.00035881137708)
(0.260991991346 -0.0130881107958 -0.0101503820808)
(0.108894696858 -0.0579497656206 -0.0045049486682)
(0.509564075862 -0.072797804685 0.00490776277137)
(0.0321577856002 -0.0408273319601 0.00811634797436)
(0.158207202313 -0.0706629721355 0.00332636986318)
(0.299251896101 -0.0313324807954 -0.00110454508255)
(0.013220857507 -0.020047816207 -0.000209236140681)
(0.509279631848 0.000894067199176 -0.0110243648398)
(0.296595984862 -0.00731236029765 -0.000713165767776)
(0.283103026541 0.00145715443032 -0.00258383451719)
(0.196927268204 0.0869412119257 -0.0350317858712)
(0.00103733697637 0.0176237733806 -0.0155606486462)
(0.260991949304 0.0130882263568 -0.0101504860508)
(0.108894781637 0.0579500671748 -0.0045049150796)
(-0.00123138387376 0.00928198027161 -0.000358710357701)
(0.0280062208626 -0.02781057598 0.00579624206829)
(0.0210903363858 -0.0109425388131 0.0036391470538)
(0.00241373233543 -0.00278490907603 0.00105252263344)
(0.0229252756497 -0.0141846700265 0.0011251926374)
(0.010354076595 -0.0115284198449 0.00134400910085)
(0.0110650982882 -0.00695113980174 0.000644580984425)
(0.00117250943877 -0.0012501276717 -4.6436565694e-05)
(0.00365578317617 -0.00776023055258 -0.000319048158683)
(-0.00256606457339 0.0050628683506 -0.00524780980179)
(0.000826727813183 0.00134954250785 -0.00066701385012)
(-0.000221212517768 0.0029071543902 0.000780764330723)
(0.000378546016761 0.000330248539186 0.000311519827289)
(0.0373270251758 -0.00422151612182 -0.00740830897142)
(0.0388834002273 -0.00861115921348 -0.0062492723432)
(0.0160122120937 -0.00271476668493 -0.000546077847362)
(0.021936485618 -0.000780020395143 -0.00199856333729)
(0.0120931025739 -0.00178375354783 -0.000147222971618)
(0.00782593625423 -5.30532867181e-05 1.9127061879e-05)
(0.0181019788477 -0.000205337943785 -0.000334212667146)
(0.00733089441345 -0.000398514033365 2.32657391617e-05)
(0.00649100477183 3.7636937082e-05 7.00472102289e-05)
(0.015710668503 -0.000255252839373 0.00041201087396)
(0.00633486651239 -0.000315403753615 5.05938065004e-05)
(0.0057770340558 -0.000177392861535 0.000164760592381)
(0.0112220361261 -0.00112122191513 0.00145393780241)
(0.0055580051245 -0.000611219635002 0.000158245271424)
(0.00431541656639 -0.000971698954948 0.00037775865225)
(0.00345936631175 -0.00155328979691 0.000347875093015)
(0.000224330816797 3.69800587611e-05 -0.000541785260022)
(4.53173765566e-05 0.000177080323174 8.97179964861e-05)
(0.00864258369427 0.00170014990913 0.000371967091162)
(0.00065728823054 0.000743607484784 9.76504182248e-05)
(0.00368353940283 0.000970969273224 -1.55278450118e-05)
(0.0160270140221 7.05575191409e-05 0.000603411425422)
(0.00465305422625 0.000291309664504 -8.23067040993e-05)
(0.00616832750703 0.000193413849651 4.93586822657e-05)
(0.0176299141501 -0.000322087306015 0.000333068151908)
(0.00638244756656 -0.000223278553018 -5.26957327497e-05)
(0.0066174546724 -4.09148739654e-06 4.77074601278e-05)
(0.0174999818899 -0.000187307245877 0.000237454788611)
(0.00661100631798 -0.000220793737361 -2.39815240753e-05)
(0.00653864994305 3.59259245251e-05 5.64455490337e-05)
(0.0176620843916 -0.000198702195745 0.00051673382647)
(0.00654152341005 -0.000122597924022 -1.04539796659e-05)
(0.00683603873704 0.000135666849933 4.15839352762e-05)
(0.0253350474656 8.81352861664e-05 -0.00022170796201)
(0.00715788361762 5.78563779433e-05 -0.000101031025289)
(0.007511453498 0.000131842213979 -0.000131793448677)
(0.0388588477218 0.0088588735686 0.00625274258362)
(0.0160542802413 0.00304610079136 0.000514490868434)
(0.0498207210316 0.0129335068979 0.00585777008664)
(0.0373822962532 0.00655845836138 0.00743412269966)
(0.0120390255611 0.00199393845045 0.000158742271109)
(0.00758681291592 5.25624893845e-05 3.14446158273e-05)
(0.0320210945211 0.0045493362012 0.00630225991622)
(0.0240791158423 0.00075039337209 0.00173759343876)
(0.00707182393663 0.000387556992625 -9.37079450379e-07)
(0.00624369130584 -8.08421183066e-05 -4.62480873627e-05)
(0.0231635010156 0.000900500379528 0.00156103679643)
(0.0210983787989 0.000208945712109 -6.02422338419e-05)
(0.00610552732818 0.000270017317029 -5.8271885476e-05)
(0.00560944970126 8.21012910249e-05 -0.000152996265177)
(0.0206244137138 0.000674783405493 8.47639423953e-05)
(0.0186584692511 0.000748579710342 -0.00100863415265)
(0.00540885788614 0.000504939967516 -0.000176819141121)
(0.00420037842264 0.000815924326437 -0.00037952246633)
(0.0177569682399 0.00143118884378 -0.00102831723087)
(0.0131639600268 0.00244166725983 -0.00217230663887)
(0.00337009332051 0.0013955612109 -0.000358251107417)
(0.0103250283972 0.00352748918521 -0.00205820048842)
(0.000280553583558 -0.000166644132088 -0.000151179338951)
(0.000322936790651 -0.000290300618556 0.000575254860581)
(0.000955606340118 -0.000580040128152 -0.000158915736224)
(0.00370217749815 -0.000800110572937 -2.27792207539e-05)
(0.00183574682568 -0.00167192790657 0.000351598121554)
(0.0100799241746 -0.00297320971592 -0.000582302247393)
(0.00459870951186 -0.000154021128534 2.11490379311e-05)
(0.00598416973262 -0.000139737535144 -2.61444213886e-05)
(0.0131963932082 -0.00180031964785 -0.000388766372277)
(0.0185518250101 -0.000986244498854 -0.000897084767472)
(0.00616398117614 0.000261449283483 1.55334895684e-05)
(0.0063448370112 -9.86124673247e-06 -1.35937663002e-05)
(0.0195140262041 -0.000127543267876 -0.000391951346964)
(0.0208915341794 -4.28551001588e-05 -0.000586582063623)
(0.00633460771057 0.00020402773838 7.48988744759e-07)
(0.00628072682481 -8.47832381321e-05 -2.65053435451e-05)
(0.0210350448863 0.000336158616667 -0.000227850539351)
(0.0211571691536 0.000119553171563 -0.000490275608678)
(0.00630775115531 6.78136802197e-05 -1.89252238968e-05)
(0.00665666348559 -0.000260985993475 2.41894948659e-05)
(0.0212084385132 0.000288650081313 -0.000337174692995)
(0.0222436937898 8.02014101992e-07 -0.000879400548416)
(0.00694079352738 -0.000215800346877 0.000132914872033)
(0.00722197745068 -0.000251027579564 0.000120557284727)
(0.0229509515409 0.000287327226453 -0.000422107278082)
(0.0244527180335 -0.00055865414118 5.89249612595e-05)
(0.00115744047475 0.00123380520336 4.1343272338e-05)
(0.022867991982 0.0139841447109 -0.0011391149917)
(0.0103423482624 0.0114713482302 -0.00134231333022)
(0.0207773951017 0.0105594016043 -0.0038480533817)
(0.00238476767036 0.00273468415054 -0.0010944222378)
(0.042992073733 0.0218163999202 -0.00639735170929)
(0.0279587629946 0.0276439720634 -0.00590714719243)
(0.00365255024204 0.00773753853373 0.00031890692857)
(0.0106007230377 0.0169738312684 -0.00369768075492)
(0.000769503203131 -0.000452254708007 -0.000324976854301)
(0.000239831427303 -0.00283523623079 -0.000545609015202)
(0.000971649929706 -5.38696448896e-05 0.000949536030197)
(-0.000275814446519 -0.00686755480162 0.00939808351522)
(0.158264279778 0.0706586559208 -0.00334288985541)
(0.299367295092 0.03134381493 0.00110303901845)
(0.0321380947503 0.0407442690468 -0.00818342934787)
(0.217265960956 0.0972388337903 -0.0181334736909)
(0.509700911653 0.0728218724411 -0.00497914053851)
(0.296705312414 0.00731429319215 0.000710849086327)
(0.283162398095 -0.00145690035548 0.00261686502459)
(0.509210181537 0.0245716382498 0.00128716962689)
(0.509611856131 -0.00087655429066 0.0108348479028)
(-0.00133072151648 -0.0091628020255 0.000749832326152)
(0.260981642687 -0.0130803159314 0.0102165139895)
(0.108732268998 -0.0570610995217 0.00487106641782)
(0.00882365436292 -0.0208121814703 0.0203558622348)
(0.467516521444 -0.0202524297115 0.0155781177416)
(0.198060884435 -0.0858955198672 0.0354785793407)
(0.299367297694 -0.0313438100375 0.00110304185225)
(0.0132180322192 -0.0200174604901 0.000207800636459)
(0.217265959067 -0.0972389928849 -0.0181334848312)
(0.509700935323 -0.07282192829 -0.00497909844078)
(0.0321380658644 -0.0407444239139 -0.00818344599393)
(0.283162453957 0.00145687862637 0.00261680688511)
(0.509210230912 -0.0245716673028 0.00128713793917)
(0.509611808083 0.000876563884598 0.0108348062778)
(0.108732239868 0.0570611667516 0.00487114064018)
(-0.00133075171979 0.00916274220881 0.00074987715585)