/*--------------------------------*- C++ -*----------------------------------*\
  =========                 |
  \\      /  F ield         | OpenFOAM: The Open Source CFD Toolbox
   \\    /   O peration     | Website:  https://openfoam.org
    \\  /    A nd           | Version:  7
     \\/     M anipulation  |
\*---------------------------------------------------------------------------*/
FoamFile
{
    version     2.0;
    format      ascii;
    class       volScalarField;
    location    "8";
    object      p;
}
// * * * * * * * * * * * * * * * * * * * * * * * * * * * * * * * * * * * * * //

dimensions      [0 2 -2 0 0 0 0];

internalField   nonuniform List<scalar> 
5218
(
1.61387807796
1.58675133317
1.58196143733
1.57917765964
1.57718626826
1.57587672055
0.00411711915698
0.00623107658361
0.00659461640383
0.00584433980209
0.00425940816465
0.00211695690442
1.60782834682
1.58569684593
1.58162413403
1.57871374259
1.57590271188
1.57173920159
1.56685844924
0.00551651091055
0.00591189290417
0.00598958261862
0.00567588404293
0.00437108881242
0.002241095043
1.60695288921
1.58548691901
1.5815743528
1.57856623788
1.57516274318
1.5670085164
1.52844273756
0.981709879941
0.202924328476
0.0126436441253
0.00608085304293
0.00558399778388
0.00548742967306
0.00434475442212
0.00223391619662
1.60855535956
1.5861881212
1.58181087338
1.57900440121
1.57672957549
1.57440865442
1.57073617314
0.00410281455234
0.0060230034564
0.00637408898338
0.00582269335049
0.00433789127195
0.00217664130452
1.61945738523
1.58781023288
1.58220886864
1.57935835838
1.57719363338
1.57583981273
0.00411415353105
0.00651448426934
0.00682458523479
0.00595739546125
0.00439908964268
0.00227283440732
1.59079874069
1.5854155588
1.58182127246
1.57926110067
1.57748232063
1.57680165487
0.0038509851379
0.00674464944936
0.00694927459423
0.00615553719104
0.00453504568863
0.00209171729069
1.58721785535
1.58365403077
1.58088092756
1.5781327957
1.57531416057
1.5743613748
1.57089074095
0.00833361684873
0.00682858667075
0.0056955617556
0.00530092031287
0.00436088357181
0.00305677297934
1.58669237543
1.58365403675
1.58088091037
1.57813276167
1.57531412609
1.56954476092
1.53482604483
0.965966955777
0.14942352403
0.00833364281925
0.00682863650978
0.005695597409
0.00530093121994
0.00436085275603
0.00290105950091
1.58859780359
1.58518035385
1.58182599367
1.5791386096
1.577013961
1.57565664243
1.57653630952
0.00422605319708
0.00675155876411
0.00653799461902
0.00601280211217
0.00470394089668
0.00235271227427
1.59769211901
1.5851826935
1.58167965384
1.57915111191
1.57727013915
1.57610622713
0.0039444547899
0.00741930681019
0.00739888519243
0.00619398759246
0.00437936462238
0.00188985288644
1.58891075005
1.5847951483
1.58173451938
1.57935930666
1.57776196246
1.57753530238
0.0037844533925
0.00705578433956
0.00718440726481
0.00636525217671
0.00472796142508
0.00217411417845
1.58552277691
1.58351681524
1.58092242475
1.57829563292
1.57564100685
1.57519328951
1.57379142339
0.00804442909936
0.00679950633085
0.00558099250099
0.00522870146609
0.00439994053203
0.002990188944
1.58505514489
1.58351681858
1.58092240344
1.57829559757
1.57564097265
1.57016558373
1.53719682925
0.960352157849
0.13916111478
0.00804443051394
0.00679952330415
0.00558101266321
0.00522870763015
0.00439991287417
0.00265248903435
1.58680922976
1.58468672414
1.58184416433
1.5793087344
1.57735685882
1.5765170078
1.57909977876
0.00413039486408
0.00700200694979
0.00655822044801
0.0060536823159
0.00486049011967
0.00247280239885
1.59520961098
1.58454202872
1.5815708166
1.57923341302
1.57752993817
1.5765097643
0.0038931450393
0.00777696163851
0.00777251055359
0.00647036356831
0.00454826773171
0.00165314259114
1.5894641488
1.58503334521
1.58179685708
1.5793307634
1.57764068033
1.57724750931
0.00382145796558
0.00699419871117
0.00710742279226
0.00627846604297
0.00463863078072
0.00211208336806
1.5860526551
1.58366085822
1.58089177793
1.57813837359
1.57531119579
1.5747039398
1.57331497864
0.00827424293249
0.00680820489579
0.00567446453166
0.00528820970738
0.00435579249584
0.0026768475548
1.58557574819
1.58366086516
1.58089176515
1.57813834501
1.57531116565
1.56969546149
1.53641865859
0.961035764183
0.140032084503
0.00827421999882
0.00680820807977
0.00567446691318
0.00528819492876
0.00435574647846
0.00234704116338
1.58734482372
1.58485994143
1.58186901495
1.57925862004
1.57722580465
1.57616945038
1.57870248992
0.00411547430552
0.00691238029616
0.00651787846021
0.00601954799019
0.004797745522
0.00237364413089
1.595473669
1.58484633407
1.58165952039
1.57921705681
1.57742684731
1.57637555495
0.00395420860199
0.00767111402918
0.0076284198244
0.00634724178635
0.00445896409387
0.00160089245493
1.59305096574
1.58598953415
1.58194699225
1.57921588043
1.57725677524
1.57621496027
0.00408447745366
0.0064785550262
0.00672435829202
0.00593236713632
0.00432173426995
0.0020111486451
1.5894282661
1.58523239757
1.58173825891
1.57881878733
1.57608607213
1.57277724193
1.56908260679
0.00635407212999
0.00639885321212
0.00588875376617
0.00561422777962
0.00451179366587
0.00226972977243
1.58887975614
1.58506198678
1.58171385553
1.57868618826
1.57541056454
1.56826948084
1.53234503841
0.968775710073
0.157653304495
0.0135561196654
0.00680893189414
0.00549066480697
0.00538342520654
0.00447703286884
0.00225571890394
1.59077465376
1.58557016751
1.58185511414
1.57907652063
1.57685374602
1.57491144439
1.57514453496
0.00420508326228
0.00635806436324
0.00640120772968
0.00587640108283
0.00446581517206
0.00211809012932
1.59901711239
1.58659767336
1.58195732149
1.57917441646
1.57714311172
1.5757762418
0.00407330813152
0.00700288660715
0.00701577020456
0.00592253931727
0.00419255115114
0.00204138390565
1.59901686709
1.59024169214
1.61926903546
1.59028791994
1.58659756785
1.58391492463
1.58802533033
1.58328326534
1.58195730882
1.58044422842
1.58236073224
1.58004888617
1.57917447024
1.57808400066
1.57940353005
1.57774722188
1.5771432471
1.5764498555
1.57719388448
1.57607455548
1.57577640501
1.57576532898
0.00275114991258
0.00310707856756
0.00407428407283
0.006318789062
0.004100617558
0.00619909014936
0.00700339644072
0.00722722470441
0.00652606158124
0.00694161962982
0.00701602500522
0.00657244968723
0.00680805313931
0.00625210054771
0.00592270175591
0.00513250968812
0.00593246366464
0.00482985874815
0.00419266382834
0.00314222200972
0.00437331028101
0.00283992657455
0.00204146836303
0.000277486910068
0.00226075718975
0.000320531152124
1.5771762703
1.57491150581
1.57470858398
1.57584118798
1.57592614838
1.57437497651
1.57065186605
1.57514449305
1.57069566343
0.00207732852503
0.000496359156271
0.00267574071173
0.00161192050991
1.5323450248
1.17631849573
1.56681718684
1.52840313325
1.18945747855
0.968775702218
0.374787098663
0.981762957899
0.396142235526
-0.000233326536149
0.157653355504
0.00928832744885
0.000273220996032
0.203018849881
0.0140478677584
1.17631857777
1.56908266762
1.52840314139
1.18945752792
1.5668171903
0.374787197534
0.981762989436
0.396142257618
0.00928831060362
-0.000233591753287
0.203018846311
0.0140477424056
0.000272680856047
1.57470859838
1.57621485885
1.57717621526
1.5743749096
1.57065178087
1.57584104569
1.57592602645
1.57069557515
0.00049587088201
0.00207655282295
0.00161126321299
0.00267456189292
1.59024187718
1.61926933566
1.59028816268
1.58391497989
1.58802552194
1.58328338309
1.58044420173
1.58236080812
1.58004890019
1.57808389753
1.57940350756
1.57774712111
1.57644971584
1.57719372838
1.57607436548
1.57576512917
0.00275018892383
0.00310572283946
0.0063181025476
0.00409942098114
0.00619819893078
0.00722685808218
0.00652528593096
0.00694113010092
0.00657227027985
0.00680756978083
0.00625184012926
0.00513240038056
0.00593224806091
0.00482975445193
0.0031421498889
0.00437328003776
0.00283991045304
0.000277487577494
0.0022607274714
0.000320536491108
1.61945690365
1.5901279095
1.59916144398
1.58891662731
1.5878099814
1.58310685887
1.58716195552
1.58308650151
1.58220879547
1.57998356547
1.58224810378
1.58002989741
1.57935839774
1.57773236495
1.57941314208
1.57781817658
1.57719382221
1.57616318735
1.57729311681
1.57645153309
1.57584010434
1.57626967914
0.00317548467814
0.0026671518202
0.00411391569872
0.00617013453195
0.00394120091302
0.00634317142305
0.00651437249548
0.00694268836632
0.00669239041251
0.00722874529327
0.00682449858143
0.0062624591241
0.00705797361981
0.00650347583925
0.00595738542084
0.00484880813451
0.00614991426289
0.00501826604812
0.004399373534
0.00283857040657
0.00452551029588
0.00286135468369
0.0022730616621
0.000342820124036
0.00217315178584
0.000342744915849
1.57596772801
1.57440878643
1.57069452755
1.57626523866
1.57721533051
1.57493046568
1.57473911261
1.57073625269
1.57517407461
0.00278092553799
0.00144794673251
0.00222983220645
0.00146297811721
1.52844273607
1.18944362028
1.56911753191
1.5323790858
1.1763016396
0.981709863897
0.395995642254
0.968719276654
0.374504313192
0.000178713541414
0.202924275388
0.0141423194859
0.000153810160298
0.157203647393
0.00801542140701
1.18944363778
1.5668584229
1.53237909108
1.17630168074
1.56911757286
0.395995641874
0.968719280338
0.374504352765
0.0141422938202
0.000178896787404
0.157203658437
0.00801543710639
0.000153894617609
1.57069442696
1.57587656112
1.57596755011
1.57493036194
1.57473908298
1.57626507722
1.57721521607
1.57517409631
0.00144817027754
0.00278121627354
0.00146312284685
0.00223008722444
1.59012823062
1.59916181333
1.58891688098
1.58310697554
1.58716215459
1.58308655715
1.57998352111
1.58224809815
1.58002982428
1.57773225238
1.57941300644
1.5778180067
1.57616297755
1.57729289281
1.57645133711
1.5762694749
0.00317577043961
0.00266756478549
0.00617020340642
0.00394165906265
0.00634346507292
0.00694275211327
0.00669262080237
0.00722887684848
0.00626252713149
0.00705803143944
0.00650340583681
0.00484864609376
0.00614981703149
0.00501797863231
0.00283834200724
0.0045252089881
0.00286107327581
0.000342791196187
0.00217287870558
0.000342688058839
1.59769179846
1.58855052098
1.59547898919
1.58747554358
0.00189015722035
0.000348656377064
0.00161998581531
0.000332575906937
1.5885507381
1.5954792433
1.5874756863
0.000348589203681
0.00161964035586
0.000332514500766
1.5952093551
1.58730506423
1.59520744408
1.58731920316
0.0016534738581
0.000331741951581
0.00164058781189
0.000328951908391
1.58730520227
1.59520765134
1.58731933611
0.000331701600841
0.00164033782562
0.000328902453858
1.5954734486
1.58750246891
1.59759004741
1.58859942797
0.0016010973189
0.000326831981943
0.00182211893097
0.000329673831472
1.58750261716
1.59759028418
1.58859958575
0.000326770785187
0.00182196021797
0.000329658085992
1.58874874874
1.59077453372
1.58774448611
1.61375217635
1.59020640479
1.60853569116
1.58903693616
1.58375411403
1.58557009204
1.58355061239
1.58676467163
1.58399885631
1.58620725584
1.58372585278
1.58047190987
1.58185508503
1.58036735236
1.58200882702
1.58047174009
1.58184982712
1.58033940643
1.57814898001
1.57907656149
1.57790357255
1.57918983847
1.57810144972
1.57901950905
1.57784188443
1.576621289
1.57685383321
1.57592328326
1.57716228593
1.5764073105
1.57671779447
1.57562624653
0.00574703114693
0.00420545519927
0.00602201132423
0.00409783318963
0.0054874688619
0.0041529793477
0.00546233177224
0.00679104923727
0.0063582407429
0.00648103812442
0.00624551963789
0.00659901451367
0.0060266009652
0.00631634744552
0.0064482506114
0.00640127159442
0.00624458300822
0.00658138730166
0.00632099965272
0.00634239020787
0.00619985488056
0.00523007739289
0.0058764627239
0.00528815071288
0.00581176658561
0.0051129502557
0.00578825692735
0.00516663479164
0.00324498744153
0.00446593879061
0.00338517843227
0.00422478841604
0.00319059258122
0.00431196897264
0.00328068053391
0.000623173895352
0.00211819777439
0.000680645757659
0.00209356386127
0.000387719475399
0.00215868811651
0.000366727289119
1.5869724364
1.5888797327
1.58663031322
1.60781967448
1.58816888701
1.60695395892
1.58778285573
1.5696322653
1.56826948843
1.55924550436
1.57170408719
1.56741977928
1.56697426464
1.55632977727
0.00071980232927
0.00225573619242
0.000717926468494
0.00223024964101
0.000385167143542
0.00222722552594
0.000367096845007
1.58663033621
1.58942833332
1.5869724944
1.60695397795
1.5877828851
1.60781979017
1.58816896672
1.55924550776
1.57277721851
1.56963227854
1.56697425942
1.55632977928
1.57170404731
1.5674197712
0.000717920403307
0.00226965240947
0.000719762704599
0.00222719148067
0.000367064920108
0.00223012528163
0.000385092953291
1.58774459554
1.59305114075
1.58874889828
1.60853587306
1.58903707463
1.61375244055
1.59020660291
1.58355067249
1.58598965158
1.58375418344
1.58620736555
1.58372593665
1.5867648164
1.58399896622
1.58036733861
1.58194701384
1.5804718896
1.58184986866
1.58033940665
1.58200888494
1.58047174273
1.57790350127
1.57921580847
1.57814887279
1.57901946266
1.57784180077
1.57918979352
1.57810136176
1.57592320429
1.57725665631
1.57662117247
1.57671769103
1.57562616153
1.57716217207
1.57640718074
0.00602174335277
0.00408390370547
0.005746488232
0.00415249346916
0.00546193905772
0.00409699760446
0.0054868676267
0.00648090922804
0.00647819075676
0.00679077802301
0.00602629789415
0.00631610368047
0.00624510045209
0.00659867390827
0.00624451524038
0.00672417189832
0.00644808221879
0.00634220051747
0.00619973691419
0.00658114749523
0.00632081098238
0.00528805811554
0.00593220963019
0.00522994098795
0.00578814852265
0.00516656014383
0.00581159583196
0.00511282756425
0.00338505195083
0.00432158652997
0.00324484610448
0.00431187270724
0.00328056413685
0.00422463865088
0.00319046099347
0.000680598145938
0.00201104660446
0.000623130464617
0.00215853837504
0.000366639595617
0.00209342767959
0.000387695880895
1.60245108235
1.60728993077
1.63075806794
1.60241611574
1.6193048093
1.5987854421
1.60689013324
1.59480343843
1.59040806878
1.59157149217
1.59478633322
1.59031881375
1.59406496475
1.59668045324
1.58583136496
1.58835929415
1.5884880733
1.58585957985
1.58798414999
1.5861928084
1.58620127176
1.58451831918
1.58349746509
1.58340980568
1.58452635237
1.58326497741
1.58480708735
1.58466511929
1.58147543712
1.58252689408
1.58240845155
1.58147922876
1.58235979088
1.58160946006
1.58153782871
1.58076283383
1.58014140093
1.5800902582
1.58074227014
1.58006683394
1.58084955765
1.58077000847
1.57886694245
1.57949379518
1.57943695754
1.57882451702
1.57945320119
1.5789127648
1.57886735228
1.57832909409
1.57786022109
1.57779963677
1.57823911649
1.57781978975
1.57834648538
1.57828983786
1.57691688576
1.57735182387
1.5772794454
1.57680374217
1.57734105297
1.5769727838
1.57687946406
1.57654384743
1.57635089873
1.57621055607
1.57630844223
1.57625649363
1.57655889421
1.5764543641
1.57609249844
1.57615797005
1.57594633104
1.57597163551
1.57600365777
1.57643728739
1.57603540069
1.57640250902
1.57662533752
1.57682633375
1.57634764698
0.00289035232268
0.00300562837245
0.00335335181949
0.00274879203806
0.00324832397228
0.00268019102022
0.00299093019288
0.00488799873886
0.00396063248015
0.00418896075785
0.00480844426679
0.00414224422322
0.00463829923862
0.00490151303651
0.00574376058773
0.00599294442648
0.00621025006764
0.00563650089823
0.00627912498452
0.00547289092632
0.00566903448428
0.0069151826339
0.00635402340442
0.00655212566452
0.00682160114215
0.00663874190407
0.00666071805953
0.00682786437761
0.00700543760783
0.00686446448258
0.00693451534541
0.00687948247304
0.0070430817746
0.00677946471657
0.00688911898971
0.00678270880966
0.00677210168605
0.0067951135443
0.00670431472383
0.0069093639209
0.00668755900774
0.00668449407814
0.00653922104713
0.00627085152679
0.00621456222716
0.00647687792737
0.00629761826238
0.00648260780188
0.00643684733698
0.00562890770304
0.00595860944083
0.00587747735048
0.00561356580194
0.0059583235553
0.00564825661609
0.00556838976354
0.00522745346127
0.0048676775408
0.00478286273328
0.00522815469608
0.00482312889768
0.00526111811049
0.00516655512293
0.00388096165898
0.00440114387177
0.0043162283905
0.00390275607397
0.00435532887832
0.00393154114189
0.00386411632926
0.00336047584687
0.00285433430939
0.00282480461327
0.00338944567117
0.00281259987872
0.00340173516179
0.00334505354314
0.00158599495744
0.00225854322285
0.00225606972812
0.00160705627421
0.00222529427449
0.00153979883699
0.00173126112022
0.00102192794766
0.000299140925508
0.000363423255207
0.00104422659071
0.000315251280942
0.000816859099429
0.00111024374039
1.57506051259
1.57599900603
1.57672244055
1.57557249386
1.57624538841
1.57612002676
1.57580470527
1.57210194015
1.57156563879
1.57184427858
0.0018131871301
0.00265692426404
0.0022509156187
0.00225526663325
0.00218803119751
0.00246635310755
0.00177423077599
1.56435739235
1.56566027477
1.56169393867
1.5539724474
1.5642929538
1.55650674171
1.55409615315
1.50385395212
1.18357638626
1.40807947277
1.39881264887
1.51104816781
0.97651076876
0.785162375662
0.781951928514
0.389815197248
0.588266300347
0.584239144311
-0.0237718179383
-0.00991207935304
-0.0113949252063
-0.0177985898309
-0.0518971592677
0.185320771016
0.0479442033882
0.0461169877459
-0.0360007787658
1.50385398699
1.1835763824
1.40807948539
1.39881263437
1.51104816733
1.5643574411
1.5656603014
1.55397245175
1.56169398275
1.55650676409
1.56429305659
1.55409619093
0.976510821795
0.785162440696
0.781952003965
0.389815248631
0.588266275447
0.584239078784
-0.0518973624683
0.185320814512
0.0479440837729
0.0461170284618
-0.0360011260053
-0.0237720942916
-0.00991248352508
-0.0113951979715
-0.0177988416608
1.5750604201
1.5759989352
1.57557240428
1.57672222194
1.5761199526
1.57624518315
1.57580460406
1.57210189239
1.57156550132
1.57184418866
0.00181224395612
0.00265573642139
0.0022542535662
0.00224962934179
0.0024653223632
0.00218684036512
0.00177317822241
1.6024513894
1.60729024092
1.60241640204
1.63075840604
1.59878573879
1.61930519971
1.60689041995
1.59480370125
1.59040831456
1.5947866167
1.5915717573
1.59406524564
1.5903190695
1.59668073555
1.58583150872
1.58835947057
1.58585974412
1.58848829058
1.58619297203
1.58798433859
1.58620145465
1.58451841524
1.58349758403
1.58452650401
1.58340992839
1.5848072182
1.58326509838
1.58466525106
1.58147548666
1.58252696135
1.58147928642
1.58240854222
1.58160951626
1.58235986185
1.5815378921
1.58076286818
1.58014142412
1.58074231022
1.58009030456
1.58084961299
1.58006690312
1.58077007662
1.57886689939
1.57949375899
1.57882447699
1.57943699138
1.57891272158
1.57945320548
1.57886733454
1.57832902096
1.57786013054
1.57823905643
1.57779952141
1.57834643587
1.57781971927
1.57828978997
1.57691669459
1.5773516843
1.57680358364
1.57727932074
1.57697263068
1.5773408931
1.5768792364
1.57654362956
1.5763506997
1.57630823672
1.57621032707
1.57655872513
1.57625623737
1.5764541066
1.5760922976
1.57615774436
1.57597145535
1.57594612854
1.57643702345
1.57600330972
1.5760354036
1.57640228747
1.57662508548
1.5768258981
1.57634775486
0.00288881348648
0.00300444449266
0.00274718659713
0.00335172946035
0.00267938273421
0.00324715714718
0.00298791020408
0.00488663837726
0.00395912945406
0.00480712500319
0.00418778248501
0.00463706034511
0.00414080678196
0.00490013708394
0.00574256292503
0.00599210678051
0.00563553358684
0.00620921966941
0.00547189540631
0.00627819168047
0.00566789990391
0.00691440211179
0.00635331170489
0.00682084186169
0.00655114320746
0.00666003831736
0.006637896555
0.00682700257715
0.00700489721202
0.00686405441402
0.00687892422706
0.00693392330073
0.00677915268945
0.00704273012754
0.00688848410748
0.00678231072061
0.00677173615604
0.00670385399204
0.00679468682138
0.00668719270912
0.00690894593101
0.00668399106468
0.00653894291764
0.00627064635176
0.00647652000473
0.00621430989322
0.00648243039587
0.00629750504591
0.00643657963377
0.00562876381251
0.00595845740665
0.00561343171184
0.0058774030279
0.00564814762975
0.0059582081904
0.00556828097497
0.00522738309689
0.00486758555571
0.00522801370775
0.00478282058354
0.00526097462932
0.00482313259791
0.00516655318971
0.00388103204578
0.00440112497166
0.00390278657595
0.00431629468679
0.0039315793066
0.00435540845158
0.00386425854426
0.00336054401743
0.00285428037909
0.00338946289424
0.00282489000491
0.00340172234884
0.00281266177493
0.00334519796979
0.00158607343776
0.00225846810909
0.00160706740128
0.00225620416043
0.00153980936598
0.00222535069602
0.00173143524438
0.00102200536414
0.00029914244854
0.00104423329833
0.000363443610181
0.00081683335412
0.0003152653994
0.00111028984948
1.59028247123
1.60855506467
1.58906050449
1.59310936362
1.58893585222
1.59081684915
1.5877859215
1.58395153869
1.58618800414
1.5836872896
1.58600683395
1.58370682402
1.58556574458
1.5835188738
1.58044070176
1.5818108687
1.58031050666
1.58189272231
1.58043330562
1.58181749076
1.58033694561
1.57810710099
1.57900447603
1.57784037759
1.5791954623
1.57814544164
1.57905758731
1.57789582538
1.57644758742
1.57672970472
1.57564885985
1.57726751307
1.57664808434
1.57685685151
1.57593358153
0.00546533245337
0.00410260733402
0.00541833636388
0.0040561635913
0.0056789482626
0.0040677939696
0.00585648938166
0.00659861070898
0.00602287749584
0.00633691829687
0.00642868397052
0.00676829195814
0.00629878952788
0.00647735371141
0.00634620477126
0.00637405176665
0.00623565110974
0.00672348203677
0.0064684292205
0.00642004433217
0.00627324886091
0.00514915859797
0.00582282609028
0.00519770882286
0.0059655003598
0.005271824452
0.00590637886306
0.00531617390545
0.00322002073209
0.00433808159838
0.00330222877621
0.00436273803307
0.00328207925023
0.00448884131888
0.00340410962938
0.000400300512905
0.00217672027463
0.000374271587391
0.00203609665626
0.000666205890121
0.00213344641767
0.00068593052906
1.58817424289
1.60695283475
1.58778447897
1.58944458345
1.58699388335
1.58888766703
1.58664281342
1.58342004821
1.5854868809
1.58334732468
1.58523392584
1.58328106617
1.58506306106
1.58322767101
1.58011179926
1.5815743501
1.58005572112
1.58171713629
1.58013878884
1.58170135547
1.58009638586
1.57735291553
1.57856625771
1.57702650895
1.57880464403
1.5773789032
1.57867739565
1.57705706749
1.57416249006
1.57516276674
1.57218064039
1.57608879423
1.57444181013
1.57541604618
1.57251893078
1.56746026854
1.56700854737
1.5563700714
1.57280205442
1.56966481611
1.56829428082
1.55927781931
1.56173517607
1.55401247126
1.55413597964
1.56439617601
1.56570243886
1.56433474047
1.55654690513
-0.00944705830198
-0.0167836074734
-0.0227813399017
-0.0113769848425
0.00579552480146
0.012643553094
0.00763975226554
0.00589821706334
0.00649083800539
0.0139392544012
0.00899672196449
0.00595625215194
0.00608079598053
0.00557969719133
0.00632517706812
0.00599910277671
0.00688648540073
0.00576406921301
0.0059552877551
0.00558397508199
0.00563437414587
0.00591231218203
0.00579553213835
0.00553531879495
0.00543637664687
0.00515755873
0.00548745298182
0.00507160342206
0.00563916209864
0.00517411570503
0.00540786556859
0.0050430521808
0.00337071667501
0.00434478141142
0.0033653436436
0.0045242670261
0.00349028618431
0.00448627746393
0.00348622863337
0.000391321531964
0.00223393845773
0.000370368967095
0.00227573115603
0.000723571476845
0.00225887794756
0.000720065203968
1.58778451838
1.60782856185
1.5881743613
1.5888877187
1.58664285903
1.5894447272
1.58699398924
1.5833473354
1.58569690843
1.58342007676
1.58506309134
1.583227693
1.58523397364
1.5832810835
1.58005571502
1.58162412699
1.58011176433
1.58170136034
1.58009637344
1.58171712023
1.58013876031
1.57702648043
1.57871367564
1.57735284362
1.5786773676
1.5770570318
1.5788045817
1.57737884658
1.57218061426
1.57590263272
1.57416241452
1.57541600489
1.57251889401
1.57608872955
1.57444175577
1.55637005702
1.57173914533
1.5674602137
1.56829426251
1.55927781264
1.57280201103
1.56966479617
0.785069134954
0.976453401734
0.781849125378
0.047946132146
-0.0356320485267
-0.0517287371484
0.185130566662
0.0459473903376
0.00763975601801
0.00551656947645
0.00579558853114
0.0139392968751
0.00899679749098
0.0058982868356
0.00649090084191
0.00557974378601
0.00591195506241
0.00595628109308
0.00688653862522
0.0057640761666
0.00632523280469
0.00599919570493
0.00563437564271
0.00598956403019
0.00595522376545
0.00553534959601
0.00543638404124
0.00591234622246
0.00579554309913
0.00507156552965
0.00567575824103
0.00515743240365
0.00540786035965
0.00504304304927
0.00563911241546
0.00517404931798
0.00336528954362
0.00437095206665
0.00337063163533
0.00448625625276
0.00348620062455
0.00452416563143
0.00349020064988
0.000370336609853
0.00224099047929
0.000391303827973
0.00225883076529
0.000720056810733
0.00227566718709
0.000723553063868
1.58906068832
1.61387852412
1.59028270987
1.59081705834
1.58778608559
1.59310964169
1.58893606838
1.58368734156
1.58675148714
1.58395161254
1.58556583626
1.5835189107
1.58600696647
1.58370687625
1.58031046764
1.58196145258
1.58044065891
1.58181748259
1.58033689443
1.58189271495
1.580433237
1.57784026883
1.57917755496
1.57810696246
1.57905750403
1.57789571079
1.57919534931
1.57814530628
1.57564872694
1.57718611882
1.57644741078
1.57685673659
1.57593346433
1.57726736197
1.57664792246
1.57160750766
1.57213955289
1.57188606757
0.00541846482004
0.00411731409516
0.0054654153563
0.00406794245015
0.00585662384269
0.00405638310492
0.00567914058313
0.0063369994815
0.00623119454693
0.00659866554402
0.00629893613795
0.00647750473733
0.00642887530858
0.00676842530039
0.0062355804875
0.00659464015893
0.00634615121709
0.00642013968957
0.00627324666682
0.00672352054256
0.00646842286676
0.00519751104326
0.00584421257383
0.00514899244761
0.005906311824
0.00531604055219
0.00596538848083
0.00527163325114
0.00330204462653
0.00425918315577
0.0032198376973
0.00448866891018
0.00340395663905
0.0043625097871
0.00328187721441
0.000374259342477
0.00211682929677
0.000400318823275
0.00213331993453
0.000685898557124
0.00203594446623
0.000666143780185
1.60257979845
1.63107733537
1.607501851
1.60727102953
1.61965391433
1.60292444453
1.59896540411
1.58565707703
1.58833216549
1.58604005037
1.58585275346
1.58807475457
1.58592556397
1.58793809292
1.58136424582
1.58224418287
1.58140712025
1.58138576947
1.58232163313
1.58145021081
1.58220916445
1.57878979964
1.57936235818
1.57879520325
1.57880349942
1.57942941273
1.57886883461
1.57936368836
1.57681854177
1.57719776665
1.57679533763
1.5768190368
1.57734789221
1.57701668524
1.57721275668
1.57602669097
1.57591676431
1.57604087112
1.57611210175
1.57628287815
1.57650344125
1.57597368117
0.00478737220819
0.0042155143572
0.00491470684374
0.00488343775651
0.00394158547934
0.00456355987645
0.00415894616906
0.00681447735719
0.00658772002266
0.00685178930503
0.00692558290506
0.00633730461618
0.006680664778
0.0066482618323
0.0067094388782
0.00680479853108
0.00667626873224
0.00672874306556
0.00679029547326
0.00670240427181
0.0068561801599
0.005629733093
0.00588446756546
0.00556782697958
0.00559268356455
0.00598142337395
0.00566162591199
0.00590825636188
0.0039146484268
0.00433327124314
0.00387095475163
0.00387848720489
0.00442624088433
0.00393776642114
0.00434096721695
0.00166903765133
0.00225599932635
0.00168727104075
0.00158151305962
0.00225488677615
0.00159060191981
0.00223422440247
1.58518258481
1.58337269411
1.58477501138
1.58319302903
1.581679692
1.58033125046
1.58161487476
1.58034011662
1.57915125247
1.57814307454
1.57920060523
1.57824395781
1.57727031518
1.57671869421
1.57742302812
1.57696188067
1.57610644481
1.57638292223
0.00249684349647
0.00228366079132
0.00394403471301
0.00668025598085
0.0039244523838
0.00689541231426
0.0074190670766
0.00768123232872
0.00767073971204
0.00795976317971
0.00739886722197
0.00691238999552
0.0076429222511
0.00713022456471
0.00619417367938
0.00536564824186
0.00636871109574
0.00550780218973
0.00437965444466
0.00337896617688
0.00448081262377
0.00343704020326
1.5879285786
1.58859762221
1.58683215837
1.58947802656
1.58715901426
1.5873495022
1.58615055746
1.58347364741
1.58518029083
1.58336178759
1.58500939963
1.58331821711
1.58484940222
1.58328104811
1.58044379668
1.58182602876
1.5803832008
1.58177569744
1.58047795647
1.58185430694
1.58047198197
1.57827072436
1.57913870588
1.57807388159
1.57932418336
1.57838923498
1.57925115806
1.57823988354
1.57706941096
1.57701408524
1.57658398465
1.57764642054
1.57737859805
1.57722728075
1.57701040292
1.57793192065
1.57565672584
1.57565274137
1.57725822195
1.57921894787
1.57617926548
1.57735122339
1.57653624838
1.57871377803
0.00157928227197
-0.000957276515056
0.00137359079303
-0.00146657945118
0.00610982124023
0.00422594886227
0.00734665503691
0.00381635368437
0.00639084231731
0.00412256178759
0.0077142111074
0.00708128974116
0.00675144243523
0.00703159577082
0.00698306213113
0.00731696105971
0.00690514676556
0.00714537244969
0.00667645781169
0.00653791732736
0.00643928167263
0.00711251594329
0.00683302717943
0.00652754544123
0.00644183946772
0.00545572413352
0.00601283174085
0.0054783090776
0.00629247010068
0.00559798565216
0.0060316147902
0.00554386345479
0.00342874214412
0.00470408654628
0.00361773041612
0.00465530537432
0.0035064502525
0.00480730659974
0.00371431306337
0.000737832920432
0.0023528315043
0.000804350329279
0.00212443146784
0.000746371808297
0.00237954667206
0.000821720526408
1.58593735945
1.58669232808
1.58562950127
1.58605498234
1.58546987341
1.58557761349
1.58525336322
1.53482602332
1.17443647823
1.5733282437
1.53643395171
1.17130778954
0.965966936225
0.36874117552
0.961030456019
0.35988677289
-0.00339358619588
0.149423334326
0.00408792243626
-0.0045181664461
0.140075093035
0.00202112221305
0.000957918003532
0.002901078307
0.000955660667002
0.00267944968124
0.000945127316004
0.00234666690989
0.000928814539708
1.58562954402
1.58721796535
1.58593743568
1.58557766568
1.58525339598
1.58605508505
1.58546993837
1.17443650671
1.57089082587
1.53643398556
1.17130776798
1.57332831557
0.368741181358
0.961030442068
0.359886766877
0.00408794621026
-0.00339349743284
0.14007505739
0.00202114306091
-0.00451809776643
0.000955645526148
0.00305670351807
0.000957901683285
0.00234664744642
0.000928808829569
0.00267934046906
0.000945110571836
1.58683228804
1.59079896372
1.58792874736
1.58734965839
1.58615067192
1.58947822859
1.58715915654
1.58336180631
1.58541565119
1.58347367207
1.5848494592
1.58328106943
1.58500949074
1.58331824162
1.58038313853
1.58182123271
1.58044369734
1.58185427892
1.58047191764
1.58177567225
1.58047786234
1.57807377707