/*--------------------------------*- C++ -*----------------------------------*\
  =========                 |
  \\      /  F ield         | OpenFOAM: The Open Source CFD Toolbox
   \\    /   O peration     | Website:  https://openfoam.org
    \\  /    A nd           | Version:  7
     \\/     M anipulation  |
\*---------------------------------------------------------------------------*/
FoamFile
{
    version     2.0;
    format      ascii;
    class       surfaceScalarField;
    location    "8";
    object      phi;
}
// * * * * * * * * * * * * * * * * * * * * * * * * * * * * * * * * * * * * * //

dimensions      [0 3 -1 0 0 0 0];

internalField   nonuniform List<scalar> 
14871
(
-1.80926101691e-13
1.01009793909e-12
1.21545236308e-13
2.99282930209e-13
-6.0811940453e-14
-3.21133909325e-12
2.46624339573e-12
4.65220742423e-13
5.59092220966e-13
-4.49555292364e-14
-1.00751273237e-13
-7.26985311286e-14
-9.83748642231e-15
-2.00708164219e-12
1.74391535854e-12
1.60456038467e-13
1.55208351237e-13
-8.82424980593e-15
-1.83979903336e-14
-1.54383860731e-14
-8.69911401701e-15
-1.59130336669e-12
1.48541895461e-12
1.47159477433e-13
3.61752698401e-15
-9.09963643472e-15
-1.33887641954e-14
-1.37050772531e-14
-2.425650587e-14
-1.38680020898e-12
1.24898835121e-12
3.76100412273e-13
-1.14887001044e-13
-2.68770606144e-14
-3.40244215157e-14
-3.82435612259e-14
-7.03954993089e-14
1.03186344445e-12
-2.71288049941e-13
-1.02469649719e-12
-7.06621485354e-14
-9.55885672369e-14
-9.77800282131e-14
9.45183004622e-14
1.28903415637e-13
2.23208789851e-13
1.5191686383e-13
1.7275985326e-14
2.23656222282e-14
1.37882365763e-13
-4.51084502603e-13
1.24479976394e-13
2.00278118919e-14
2.47088582316e-14
3.07540011582e-14
2.51272254877e-14
2.42185402379e-14
2.42441684295e-14
1.81780716519e-14
-5.36890855191e-13
8.65624215632e-13
-3.3044638574e-13
-9.31224875221e-14
1.60574841685e-14
3.20385932941e-14
2.85613515005e-14
1.34452278726e-15
-1.10182438371e-12
1.24435664662e-12
-6.58593632041e-14
-8.82047946705e-14
9.04623059642e-16
5.24166523796e-15
4.04109130577e-15
-2.43975043561e-15
-1.33268220493e-12
1.38080867088e-12
1.14781214689e-14
-4.98940285752e-14
-1.94941239756e-15
-2.96886459745e-15
-2.35251406841e-15
-1.33782092698e-15
-1.41110582047e-12
1.42902142888e-12
1.02218139236e-14
-2.24973568023e-14
-5.46975234226e-16
-2.50919052848e-15
-1.24606153335e-15
4.48312085806e-15
-1.43829681872e-12
-1.76194210055e-14
2.66766187251e-14
9.06858983862e-15
3.85424011766e-15
3.35081056837e-15
2.32585960765e-13
2.59995033763e-13
4.25964417705e-13
4.89937510997e-13
-3.85352874105e-14
2.56632691065e-14
9.72452036045e-13
2.90419996572e-13
-3.99591272261e-13
-3.25650074078e-12
2.82009558072e-12
2.15549909805e-13
6.20446522527e-13
-1.83735377758e-13
-2.56115051966e-12
2.42219446272e-12
1.09434825506e-13
2.13256609215e-13
-1.94103898946e-13
-2.37528695264e-12
2.4070173942e-12
1.28159117399e-13
3.42143399903e-14
-5.28133568989e-13
-2.53578377783e-12
2.80039935177e-12
4.08081692909e-13
-1.44563697851e-13
-1.68516800516e-12
-3.25905013558e-12
3.87344076798e-12
1.71338203072e-12
-6.42604657981e-13
-3.53356412321e-13
-5.99283587112e-13
2.88752946175e-13
7.3589477776e-13
-7.20077336059e-14
-1.76499074043e-13
1.40385709754e-12
2.26630150647e-12
-2.71363800266e-12
8.32761683761e-13
-5.09208985778e-13
-2.84101865478e-13
-8.1947242049e-13
5.6586365876e-13
-2.26403810122e-12
2.16909767544e-12
-5.59657024299e-13
8.87337913131e-14
9.69908054989e-14
-2.10651296562e-12
2.07273134875e-12
-7.07955091217e-14
7.58632039991e-15
-1.67742240855e-14
-2.07245368794e-12
2.0798797602e-12
1.72180114283e-14
-7.86985964284e-15
-1.50786192324e-14
-2.09617163223e-12
2.10941837935e-12
1.47230623837e-14
-1.28911902647e-14
1.17148642612e-14
-2.11238487419e-12
3.87967400894e-16
2.85988994488e-14
3.51506044076e-13
3.59204927977e-13
6.90153078171e-13
6.70819121096e-13
1.03524079129e-18
-7.49157033479e-15
9.67097469334e-13
2.90393065761e-13
9.95307325716e-18
-3.20895582177e-12
2.81400508645e-12
-2.15563179941e-13
6.10503962206e-13
5.1918034918e-18
-2.61230955145e-12
2.51899393117e-12
-1.09442986765e-13
2.02753415264e-13
9.44821114605e-19
-2.52710089543e-12
2.63727619553e-12
-1.28158118726e-13
1.79818738046e-14
-3.34181504989e-18
-2.92312735579e-12
3.54650191514e-12
-4.08073440618e-13
-2.15297776918e-13
-6.59208058201e-18
-4.75417395235e-12
7.10559420658e-12
-1.71337120696e-12
-6.38042455216e-13
-2.22120988541e-18
-1.45610891265e-12
-1.15035770176e-11
5.63898261845e-12
2.1016735847e-12
2.67244964503e-12
8.22609534562e-12
-1.21741681834e-12
-1.21473023417e-12
-1.52692562041e-12
-1.72044041214e-12
3.56153602041e-19
-7.62882524639e-12
7.57009342942e-12
5.87314608093e-14
1.00080293602e-18
-7.18121977279e-12
6.70946143132e-12
4.71757340662e-13
-9.67405636522e-12
1.32981836591e-17
5.82067327201e-12
2.7136347298e-12
1.13973506546e-12
5.52596392689e-18
-3.83240404843e-12
2.9053320524e-12
5.59651296347e-13
3.67415173759e-13
3.13605075965e-18
-2.45905752619e-12
2.26987174465e-12
7.07975729204e-14
1.18385072464e-13
1.99975828299e-18
-2.2025315661e-12
2.18838836159e-12
-1.72079793419e-14
3.13491840347e-14
2.63947478437e-18
-2.20024791251e-12
2.21563440209e-12
-1.47185873479e-14
-6.70541716235e-16
7.481673988e-19
-2.21924365881e-12
-3.82111809139e-16
4.56022789543e-14
3.73155725132e-13
3.71001924818e-13
7.12198624514e-13
7.1766649915e-13
3.85364888592e-14
-5.63925862458e-14
9.77509115333e-13
2.90346991717e-13
3.9960674274e-13
-3.31485351739e-12
2.76916080015e-12
-4.65232873958e-13
6.11318848463e-13
1.83744940403e-13
-2.41127236939e-12
2.19631801406e-12
-1.60463011526e-13
1.91672426466e-13
1.94107297264e-13
-2.0792063069e-12
2.01854472309e-12
-1.47157289925e-13
1.37115764691e-14
5.28125685858e-13
-1.99868980855e-12
1.99322086306e-12
-3.7609667685e-13
-1.46560063519e-13
-1.03185443814e-12
-4.33486424598e-13
1.68515292681e-12
-1.97478867872e-12
3.9434591635e-13
2.8027339442e-13
4.46857855773e-13
6.33499447933e-13
3.5335520373e-13
-1.77872116501e-13
-1.30386951085e-13
-4.50961361444e-14
-1.041984278e-14
-1.40384104034e-12
7.07225820446e-13
4.51086443304e-13
3.35290535463e-13
-4.76723749189e-15
-5.10347911533e-14
-2.35399830421e-14
-5.65861415844e-13
-1.17070890331e-12
1.44787187247e-12
3.30447957879e-13
-4.17495112281e-14
-9.69879789638e-14
-1.62496769842e-12
1.72040717085e-12
6.58643269085e-14
-6.43158204318e-14
1.67816653599e-14
-1.78590119193e-12
1.82137389461e-12
-1.14821448441e-14
-4.07722232072e-14
1.50850994579e-14
-1.84797272347e-12
1.8629069634e-12
-1.02300436899e-14
-1.97892956843e-14
-1.17026441546e-14
-1.86594697761e-12
1.7614235139e-14
3.00544575167e-14
3.23524306346e-13
3.08357116726e-13
5.80236236668e-13
6.17863299865e-13
1.80926741402e-13
9.98723699591e-13
-2.17064483926e-13
2.87414063532e-13
-3.72885333486e-13
6.08147251081e-14
2.9667418481e-13
-3.00013394772e-14
4.53977542267e-14
-1.8262109763e-13
9.83997842248e-15
1.67672895418e-13
-3.73804337054e-15
8.84622212098e-15
-1.41619059001e-13
8.70175708992e-15
1.36127211415e-13
-2.71147383372e-15
-4.98485520858e-16
-1.21978081201e-13
2.42568636747e-14
1.13441543431e-13
-7.24824460181e-15
-8.47211831903e-15
7.0393392275e-14
-7.65690279975e-14
4.92498199449e-14
-2.10720032597e-14
-2.20022054744e-14
2.2301613056e-14
-1.72762532013e-14
-1.40631434713e-14
3.36617165474e-15
5.67145257909e-15
-3.97767952456e-14
-1.81783655322e-14
5.81290947121e-14
4.41348722498e-15
-4.58762499045e-15
-1.00469612886e-13
-1.34299682436e-15
1.07699887661e-13
-2.55996782202e-16
-5.63144229766e-15
-1.21151291495e-13
2.44151663088e-15
1.22876293584e-13
-1.0207013262e-15
-3.14589917484e-15
-1.25574145679e-13
1.33838856485e-15
1.25950478837e-13
-5.00369836858e-16
-1.21435243892e-15
-1.27654253853e-13
-4.48096750618e-15
1.28882178492e-13
9.87478376004e-16
2.26563231421e-15
-3.2895371788e-13
-1.03218901601e-12
5.6731136275e-12
1.13545041973e-12
6.22445983377e-13
-3.27350663133e-13
-3.73003579064e-13
-3.6951306386e-13
-8.53314166828e-13
-5.05838320585e-13
-5.71156910649e-12
5.34657281765e-12
1.00719191591e-12
7.16956860374e-13
-2.87031329296e-13
-1.87753291223e-13
-5.0426440589e-12
4.79029796939e-12
4.4542080528e-13
2.81709904757e-13
-8.86688298322e-15
-1.32684666196e-13
-4.57932230664e-12
4.35781122472e-12
3.51163250433e-13
1.18993806437e-14
2.19182042065e-13
-2.78971789809e-13
-4.0620881971e-12
3.57729565339e-12
7.61286795585e-13
-2.16704504146e-13
4.74658012536e-13
-1.5434351246e-13
-2.81010759756e-12
1.88435514824e-12
-4.46836505904e-13
-1.60666883769e-13
-1.56808011194e-13
-1.61400619525e-13
3.15605490006e-13
4.44240520362e-13
4.52292365005e-13
3.19011598689e-13
-2.59057002655e-13
6.02785439536e-14
-9.91015088824e-14
1.03741973129e-12
-1.18836049318e-12
2.42202010419e-13
7.24996360997e-14
5.98531872077e-14
7.42658839234e-14
1.25947735769e-13
4.82348453601e-13
-2.34015725118e-12
3.22948810703e-12
-1.43814143712e-12
-5.94856081588e-14
1.45273025203e-13
1.88835232503e-13
-3.84020254649e-12
4.16635393094e-12
-5.45447471461e-13
-1.14812170815e-13
8.86385266794e-14
3.84402651173e-14
-4.34756221779e-12
4.42254335727e-12
-1.22420066646e-13
-7.96398647068e-14
4.78745869489e-14
-1.11197547487e-14
-4.45487797537e-12
4.47287747935e-12
-9.17839262753e-15
-4.55759435821e-14
4.74961957378e-15
1.38269438032e-14
-4.52588682188e-12
4.56535435758e-12
-3.90590080091e-14
-1.82263207518e-14
-1.17120049363e-15
2.81969384777e-15
-2.40723117951e-15
-1.06584266757e-12
-7.25259248484e-13
5.79470883688e-12
3.33514855247e-13
6.62878223949e-13
3.1525677426e-11
-5.05760392695e-17
1.72785022225e-12
-9.63894572737e-13
-7.0763028599e-13
-9.67624125511e-13
-6.92275817789e-13
-9.38979765238e-13
-7.09572698032e-13
-9.57959421656e-13
-7.05634752932e-13
-6.63987444767e-12
-6.61604178461e-12
-6.68861942587e-12
-6.66536980691e-12
3.38833405552e-11
-3.56418648507e-17
8.26580938143e-13
-3.9643430102e-13
-2.56794592847e-13
-3.95822809779e-13
-2.47423283458e-13
-5.07707094659e-13
-4.20252533984e-13
-5.30998113874e-13
-4.28791531144e-13
3.59646309756e-11
7.89219471215e-19
3.22121804068e-14
-6.29674107791e-14
4.27605003899e-14
-4.13631643083e-14
7.4632330516e-14
-4.62558824758e-13
-5.83132299514e-13
-4.85233937811e-13
-5.95651281962e-13
8.59406933674e-12
3.50122708489e-17
-9.28498381836e-13
2.85443650568e-13
5.35224237166e-13
4.24420474613e-13
5.84360405234e-13
-1.11611604755e-12
-1.59401610193e-12
-1.15604029096e-12
-1.61949271102e-12
1.12194606731e-11
9.00034403799e-12
1.17354245596e-11
1.01841676234e-12
-2.89348942739e-12
8.35118961915e-12
2.90704021545e-12
-7.89088832845e-13
2.48814843251e-13
-8.49661483418e-13
-1.38429259361e-12
6.42477001733e-13
1.55641038916e-12
-2.13748180014e-13
4.58338672472e-11
-3.71629238084e-17
3.31166054172e-12
-1.53144865328e-12
-6.30814128477e-13
-2.60379755753e-12
-1.65157886272e-12
3.423815493e-12
3.84045751044e-12
3.46542608733e-12
4.08024925631e-12
-6.09989008134e-12
-2.2720502121e-11
-5.90313343491e-12
-2.28142753402e-11
3.77062527069e-11
-5.83775416705e-17
1.59277525635e-12
-3.05736009337e-13
-1.78827142867e-13
-6.75822740109e-13
-4.4959981746e-13
2.17384678799e-12
1.67035430271e-12
2.41348380006e-12
1.88713225731e-12
3.49844080401e-11
-4.29347297402e-17
6.15037429489e-13
-8.43734108728e-14
-8.43622246182e-14
-1.92336987147e-13
-1.52708028871e-13
7.31055124002e-13
4.5356991337e-13
8.78688826625e-13
5.57307662455e-13
3.45009375769e-11
-5.06504422628e-17
1.70514147636e-13
-2.9855004397e-14
-2.73816245888e-14
-6.77526083162e-14
-4.92470767799e-14
1.40405993056e-13
6.28590088556e-14
1.93665475109e-13
9.02717034873e-14
7.90800933718e-12
-4.38376473324e-17
-5.18022429324e-14
2.9324498676e-14
6.45946020834e-14
1.1014014527e-14
4.71948692313e-14
2.9564181756e-14
7.73049836598e-14
3.22709541472e-14
5.30325585816e-14
8.27785204902e-12
8.79730143121e-12
9.22528339291e-12
8.85210468117e-14
1.1666509332e-13
7.66087381218e-12
-2.85927824941e-15
4.47940728939e-14
-1.06041016701e-12
9.62305158139e-18
5.73811304719e-12
-3.33530631773e-13
6.55818129818e-13
3.15257031871e-11
-9.39010170623e-13
1.72785690699e-12
-9.67622363704e-13
-6.92271641035e-13
-9.63912504953e-13
-7.07639373291e-13
-6.61604091287e-12
-6.63989515094e-12
-6.66536924366e-12
-6.68863643649e-12
-7.09591978547e-13
-9.57987942774e-13
-7.05654685473e-13
3.38833571313e-11
-5.07725531176e-13
8.26594122382e-13
-3.95824082163e-13
-2.47420784255e-13
-3.96443620805e-13
-2.56794625039e-13
-4.2025521016e-13
-5.3101807255e-13
-4.28799506409e-13
3.596463851e-11
-4.62561668468e-13
3.22198931864e-14
-4.13675120861e-14
7.46306226987e-14
-6.29675895255e-14
4.27698267129e-14
-5.83118443637e-13
-4.85240971854e-13
-5.95646087952e-13
1.1219452758e-11
-1.11610314481e-12
-9.28498165301e-13
4.2441048082e-13
5.84352646433e-13
2.85450608657e-13
5.35243010052e-13
-1.59398729785e-12
-1.15603599295e-12
-1.61947391248e-12
8.5940899928e-12
1.17354171795e-11
9.00036083718e-12
1.00599307062e-12
-1.05734197541e-17
1.39145587255e-11
-2.90702856867e-12
-7.94059765424e-13
1.86467171391e-12
-2.69526629452e-18
-1.37253675486e-12
9.90422933096e-12
3.41462231465e-12
3.4266250875e-12
9.95235518604e-12
-1.86682112862e-11
-2.25901524596e-12
-1.9910775273e-12
-1.99940096854e-12
-2.27225910642e-12
8.93190130782e-17
2.63346239673e-19
-1.32073701593e-11
1.3219096268e-11
-1.18156910918e-14
-3.57587336385e-13
2.23846872722e-18
-1.33416440459e-11
1.34530961747e-11
2.46132969127e-13
4.58338255406e-11
3.42380783365e-12
3.31167543325e-12
-2.60380379443e-12
-1.65158882472e-12
-1.53145473486e-12
-6.30827993344e-13
-2.27205019399e-11
-6.09989150981e-12
-2.28142799632e-11
-5.90313614022e-12
3.84044215351e-12
3.46540447344e-12
4.08022542281e-12
3.77062656178e-11
2.17383877886e-12
1.59280667484e-12
-6.75824828981e-13
-4.49599201229e-13
-3.05734150092e-13
-1.78844236088e-13
1.67033278096e-12
2.41345343427e-12
1.88710105404e-12
3.49844316902e-11
7.31051368767e-13
6.15054684135e-13
-1.92332241647e-13
-1.52703217146e-13
-8.43741795345e-14
-8.43704460495e-14
4.53552609558e-13
8.78661403474e-13
5.57275975665e-13
3.45009739238e-11
1.40403512402e-13
1.70530233542e-13
-6.77374866926e-14
-4.92379359653e-14
-2.98548651146e-14
-2.73847364107e-14
6.28475061997e-14
1.93651216785e-13
9.02552783878e-14
8.27786032944e-12
2.95532865025e-14
-5.17902889858e-14
1.10288197682e-14
4.72085223117e-14
2.93215516557e-14
6.45879244354e-14
7.90800924834e-12
9.22529907081e-12
8.79730930986e-12
7.72934308156e-14
3.22625383762e-14
5.3023850455e-14
4.63778446223e-14
5.75936992704e-18
8.13920257178e-12
2.84287783905e-15
8.94151673385e-14
-1.06237076021e-12
7.25274619086e-13
5.80811458525e-12
-1.13546282441e-12
6.64444380313e-13
-9.51729789235e-13
-6.36595677557e-12
6.54220071359e-12
-1.00721215691e-12
8.43686645268e-13
-3.70085769173e-13
-6.50542119078e-12
6.43441977235e-12
-4.45433069142e-13
3.78790196067e-13
-3.83269429915e-14
-6.33577653472e-12
6.21803814592e-12
-3.51163760996e-13
4.46627355498e-14
2.63466516951e-13
-6.08997033404e-12
5.74299305604e-12
-7.61280157957e-13
-2.7131977544e-13
7.37181047762e-13
-5.26789707008e-12
-1.88434111357e-12
-6.60712261476e-13
2.89346818737e-12
1.19273564373e-12
8.76361833554e-13
8.93990596009e-13
1.2192131604e-12
1.26075650622e-13
8.49659926977e-13
-5.66401556946e-13
-2.97453450053e-13
-1.11880570607e-13
-5.98681467253e-13
-1.07238888369e-12
3.28892025982e-12
1.1883527174e-12
6.1759080735e-13
-9.24635903535e-15
-4.91396478329e-12
5.5193533177e-12
1.43813535577e-12
1.39541412537e-13
8.17586456659e-14
-6.0403701438e-12
6.17072243862e-12
5.45448440417e-13
-2.65212363955e-14
6.30079183634e-14
-6.27333184299e-12
6.27208258183e-12
1.22417503455e-13
-4.37905367734e-14
4.27271333543e-14
-6.27001182251e-12
6.27882167706e-12
9.16396487174e-15
-3.11624003295e-14
2.91553089545e-14
-1.1664915914e-13
-6.32024329989e-12
6.38012947997e-12
3.90447245747e-14
-1.14370544667e-14
-1.32899561257e-13
3.2895644786e-13
-3.15588424625e-13
9.4520430457e-14
1.27501110701e-12
-1.61206628112e-13
-9.40098911261e-13
5.05847806827e-13
2.5356653751e-12
3.75700856685e-13
-1.29088702475e-13
-9.92943949579e-14
-7.54717873915e-14
-5.38839545514e-13
-9.36051923346e-13
-5.37162173509e-13
-4.19738231442e-14
1.8775974967e-13
-2.23967783009e-12
2.04493184123e-12
1.13436412483e-13
-3.00101853277e-14
-1.96289684597e-14
-1.48372068296e-14
-6.04184807291e-16
1.32686886557e-13
-1.91036909626e-12
1.7762636258e-12
-1.02088664215e-14
5.09240248029e-15
2.32556707095e-15
4.81367416155e-15
3.02903416478e-14
2.78966455831e-13
-1.60581080614e-12
1.32563896596e-12
-1.12170447775e-13
3.62297662588e-14
2.17916281578e-14
2.5064094434e-14
5.88902630506e-14
1.54340995284e-13
-2.86232306458e-13
2.1021733188e-13
-7.14676551796e-14
-6.57486080104e-14
-2.42506272061e-14
-6.02753830446e-14
3.03782618496e-14
9.09366641431e-15
1.78937288872e-14
2.71600963534e-14
3.17132394368e-14
-4.82343129253e-13
-6.61327321727e-13
1.12975587812e-12
-7.82814401968e-14
3.06602923611e-14
1.48063751885e-14
1.50161677119e-14
2.75820747625e-14
-1.88844938398e-13
-1.47518101267e-12
1.66399292426e-12
-8.42499159469e-14
2.51739555965e-14
1.61371889651e-14
1.53897375678e-14
1.533944798e-14
-3.84456454324e-14
-1.77175819074e-12
1.81355545064e-12
-5.45355186244e-14
1.43565004764e-14
1.10008038878e-14
1.04871503993e-14
8.67018792554e-15
1.11222157893e-14
-1.82953230362e-12
1.81937523791e-12
-3.56346612615e-14
1.02119338973e-14
7.56483548438e-15
8.22255865218e-15
-6.38057324418e-16
-4.74575479658e-15
-5.6588058281e-13
6.04215085093e-13
-3.09189737578e-14
-2.03163351444e-15
-3.24932374002e-13
-2.85603593801e-13
5.54159361121e-12
1.11662512045e-12
6.94301350647e-15
-3.24977566633e-13
-3.6494801465e-13
-3.64700210265e-13
-3.97929494024e-13
-4.91833708469e-13
-5.69727692724e-12
5.57883257836e-12
9.9705170008e-13
1.11558513227e-14
-1.73222214779e-13
-1.95986767158e-13
-5.51884790539e-12
5.42468463724e-12
4.62153944274e-13
1.21830582999e-15
-7.32890200405e-15
-1.37433914413e-13
-5.30013020943e-12
5.08361626008e-12
3.66817674781e-13
-5.54090903133e-15
1.37007669038e-13
-2.80640172025e-13
-4.73153581395e-12
4.10141545193e-12
7.82759410593e-13
-9.00654560068e-15
2.66999400219e-13
-1.50905680963e-13
-3.133377193e-12
1.871316836e-12
-8.28372073778e-15
-1.55368385719e-13
-1.50594434195e-13
-1.54893661709e-13
4.73735860831e-13
3.33976048845e-13
4.73815857379e-13
3.33579069149e-13
-1.5079316424e-13
5.6199046189e-14
-7.75027980891e-14
1.17781119973e-12
-1.2200052567e-12
9.80588273676e-15
7.45758979146e-14
5.56746814892e-14
7.42344819846e-14
3.60348194512e-15
6.10688159423e-13
-2.81525810818e-12
3.93642072592e-12
-1.73850370728e-12
3.04944813036e-15
5.55959411663e-14
2.72963356301e-13
-4.71882235404e-12
5.12294482572e-12
-7.35226625254e-13
2.54485596088e-15
4.50438399766e-14
7.28000968445e-14
-5.34783853012e-12
5.42764786173e-12
-1.9833571072e-13
6.82442164476e-16
2.91890893745e-14
-1.04253926477e-14
-5.45565077593e-12
5.4581341076e-12
-1.87946891679e-14
-2.45233929221e-15
-1.80475786304e-15
1.85441255573e-14
-5.49323739303e-12
5.50971048907e-12
-1.20818599147e-14
-4.39567844454e-15
-7.41014016937e-15
-1.80210019397e-15
-7.52264734768e-15
-3.17120619574e-13
-7.16331888786e-13
5.69857321486e-12
3.29651286082e-13
5.22800744355e-15
3.36079479031e-11
-5.05706897839e-17
-1.62267271959e-12
-9.51359778503e-13
-7.11442232236e-13
-9.49159759419e-13
-7.10717946197e-13
-6.74215326993e-12
-6.72700295529e-12
-6.74026649821e-12
-6.72529045745e-12
3.71924601607e-11
-3.14813071319e-17
-7.81060972845e-13
-5.47453988009e-13
-4.40388536826e-13
-5.4777736246e-13
-4.41217786914e-13
3.94373126948e-11
3.17690179243e-18
-4.5070578558e-14
-4.90152515723e-13
-5.92635053481e-13
-4.91135096181e-13
-5.9365128116e-13
9.3919546523e-12
3.50970002147e-17
8.74523370202e-13
-1.15251115105e-12
-1.61325935291e-12
-1.15356457125e-12
-1.61443716634e-12
1.21913021353e-11
9.39281801329e-12
1.21919623282e-11
-2.94041385917e-12
4.94909673818e-13
8.86242008281e-12
2.9858045265e-12
-1.07674751069e-14
9.39991542376e-14
-8.48213694733e-13
-1.42352432509e-12
6.50513848831e-13
1.57467085543e-12
-4.74458597227e-14
4.80500095684e-11
-1.62381958394e-17
-3.2112910754e-12
3.47275350728e-12
4.13167816553e-12
3.47067676577e-12
4.13137142641e-12
-5.76252201467e-12
-2.26057868362e-11
-5.75901039313e-12
-2.26062700732e-11
4.21193612027e-11
-1.96444833466e-17
-1.57795809604e-12
2.52876251591e-12
2.02076515062e-12
2.52990472668e-12
2.0219809384e-12
4.01055236402e-11
-2.8921979304e-17
-5.94038952126e-13
9.7143490202e-13
6.38884984566e-13
9.72839310145e-13
6.39826149587e-13
3.9737185785e-11
-4.80043406766e-17
-1.54764591489e-13
2.30894832319e-13
1.15463238617e-13
2.31629627566e-13
1.15711076852e-13
9.62144175821e-12
-5.29084009782e-17
4.70869360981e-14
3.52677672179e-14
6.22115209063e-14
3.51894074949e-14
6.17758040417e-14
1.00980584303e-11
9.62419224604e-12
1.0100239139e-11
4.861734953e-14
7.04433491417e-14
9.48067869448e-12
2.53543042722e-14
-3.67577244164e-15
-3.15144741951e-13
6.92103157619e-18
5.64022373564e-12
-3.29665454778e-13
4.57954008431e-15
3.36079800787e-11
-9.51384735908e-13
-1.62267584225e-12
-6.72700062885e-12
-6.74216905349e-12
-6.72528890962e-12
-6.74028230798e-12
-7.11458172225e-13
-9.49187114765e-13
-7.10736247219e-13
3.71924791152e-11
-5.47470529774e-13
-7.81067673647e-13
-4.40393004686e-13
-5.47794289161e-13
-4.41224927548e-13
3.94373275774e-11
-4.90155327224e-13
-4.5072767933e-14
-5.92626093906e-13
-4.91140325023e-13
-5.9364575675e-13
1.21912973814e-11
-1.15250054823e-12
8.74523333885e-13
-1.61323544845e-12
-1.15355726165e-12
-1.61441898959e-12
9.39196968516e-12
1.21919578683e-11
9.39283394027e-12
5.06621249541e-13
-9.2871368996e-18
1.46814626569e-11
-2.98579419492e-12
-1.0974988473e-14
7.15627507806e-13
-7.3220498961e-19
-8.50921381766e-15
3.46640740244e-12
1.0049966741e-11
3.465137984e-12
1.00545321303e-11
-1.9131684611e-11
-2.01856521301e-12
-2.28721143077e-12
-2.01817188332e-12
-2.28752860912e-12
1.33939753143e-14
1.45725290321e-18
-1.33939084143e-11
1.33879264648e-11
-7.41348304351e-15
-6.14341323975e-14
8.84299366311e-19
-1.34542020886e-11
1.34870222283e-11
2.8613108429e-14
4.80500171898e-11
3.47275015266e-12
-3.2112715007e-12
-2.26057955483e-11
-5.76252219595e-12
-2.26062706954e-11
-5.75900728347e-12
4.13167533984e-12
3.4706727115e-12
4.13136093572e-12
4.21194014659e-11
2.52875214597e-12
-1.57794094042e-12
2.02074640041e-12
2.52989318589e-12
2.02196553341e-12
4.01055562576e-11
9.71422856933e-13
-5.94021943894e-13
6.38864897012e-13
9.72823347598e-13
6.39804479027e-13
3.97371908242e-11
2.30879967062e-13
-1.54745871301e-13
1.15448077667e-13
2.31611990301e-13
1.15688779346e-13
1.00980631363e-11
3.52473504916e-14
4.70906112411e-14
9.62142778485e-12
1.01002421454e-11
9.62418616424e-12
6.21950575548e-14
3.51701778476e-14
6.17567298409e-14
3.52462532481e-14
9.03524186384e-18
1.00915677575e-11
-2.53818113328e-14
-3.37115628982e-15
-3.12598078427e-13
7.16345780456e-13
5.70662412108e-12
-1.11663680916e-12
6.26498606942e-15
-4.7768029871e-13
-6.46613572406e-12
6.97357644735e-12
-9.97070852694e-13
1.59209539121e-14
-2.37480465098e-13
-7.25111129279e-12
7.3973626294e-12
-4.62165263062e-13
5.91794799165e-15
-3.08431135319e-14
-7.42427535831e-12
7.33584447298e-12
-3.66820835055e-13
-4.06563624677e-15
1.64810177784e-13
-7.15510733281e-12
6.63079919701e-12
-7.82752633926e-13
-1.02494009197e-14
3.89761589521e-13
-5.90852347389e-12
-1.87130647871e-12
-1.09261450142e-14
2.94039423444e-12
9.45724391749e-13
1.2841881978e-12
9.45016547772e-13
1.28567115458e-12
4.97047479858e-14
8.48211488614e-13
-5.79801893919e-13
-2.92958329206e-13
-2.51560134815e-14
-3.44665385675e-13
-1.0447767333e-12
3.63299965725e-12
1.21999512448e-12
9.18592548985e-15
-1.12984820616e-13
-5.73741920016e-12
6.63801183618e-12
1.73850384215e-12
2.6338823984e-15
4.84386297944e-15
-7.38666133333e-12
7.61474845795e-12
7.35230122051e-13
3.25787073289e-15
2.37047579594e-14
-7.77551125706e-12
7.78253808165e-12
1.98333720989e-13
1.81377462518e-15
1.99696068581e-14
-7.77842036852e-12
7.77669112894e-12
1.87894894606e-14
-1.77382219271e-15
2.12299684802e-14
-7.04344157831e-14
-7.81233924164e-12
7.85421585939e-12
1.20716521035e-14
-4.74382256885e-15
-2.83518040731e-14
3.24934884457e-13
-3.12658048331e-13
1.40233750008e-14
1.25205158371e-12
-9.12194187993e-13
-1.99390011963e-13
4.91841792686e-13
2.56481617306e-12
-1.98341423734e-16
-5.18744739792e-13
-9.08995766018e-13
-5.1713492308e-13
-6.90054879789e-14
1.95993839779e-13
-2.39517372064e-12
2.27207615535e-12
-3.89078649562e-15
6.97093142548e-15
1.37437922443e-13
-2.16907062324e-12
2.02917673458e-12
-4.51496522152e-15
7.08714266727e-14
2.80636206349e-13
-1.82657706268e-12
1.48015858209e-12
-5.08915243194e-15
3.91434017554e-14
1.50904219002e-13
-3.14429728479e-13
2.24402600441e-13
-7.92568139753e-14
-2.0763662057e-14
-1.82734279973e-14
-5.61975350895e-14
4.60543374835e-14
-1.08743237918e-15
1.89769230734e-14
1.0526828418e-14
3.43089004041e-14
-6.10682664983e-13
-8.02837156911e-13
1.37691105051e-12
2.29987086304e-15
4.64966593971e-14
-2.72960688822e-13
-1.80177571754e-12
2.02611692446e-12
2.1228224519e-15
3.26257117947e-14
-7.27954103391e-14
-2.15172706306e-12
2.19119975586e-12
6.97005771835e-16
2.20654722376e-14
1.04338759867e-14
-2.1976955761e-12
2.16636953585e-12
-1.17330794446e-15
4.1173999412e-15
1.80522161005e-15
-6.87818718123e-13
7.34183045312e-13
-5.02414930777e-14
-2.04534949165e-15
-3.23923765268e-13
2.68997156559e-13
5.59053738613e-12
1.11454917695e-12
-5.99459765874e-13
-3.23400612516e-13
-3.63818034404e-13
-3.63481553656e-13
3.75792883741e-13
-5.05225536837e-13
-5.72792196926e-12
5.54997985627e-12
1.00187670999e-12
-6.94501943871e-13
1.72141066429e-13
-2.02172080528e-13
-5.41934217032e-12
5.27274165894e-12
4.60243489842e-13
-2.83611964352e-13
1.85787245017e-14
-1.42298796816e-13
-5.11632836045e-12
4.89339047418e-12
3.69611785773e-13
-2.29538272051e-14
-1.19825141341e-13
-2.89431339249e-13
-4.55609516192e-12
3.96796882296e-12
7.94661292588e-13
2.02721526951e-13
-2.51237949741e-13
-1.55095928851e-13
-3.0581369337e-12
1.90244610961e-12
4.33873596597e-13
-1.59371952006e-13
-1.55790253983e-13
-1.60558893027e-13
4.69653779054e-13
3.31654853872e-13
4.7026372663e-13
3.32299844612e-13
1.31810626048e-13
5.84537790251e-14
-9.4008674855e-14
1.15075413165e-12
-1.23539710488e-12
-2.23969712886e-13
7.64926464103e-14
5.92334866488e-14
7.66307975239e-14
-7.69772172137e-15
5.90274083408e-13
-2.70013093012e-12
3.74524576243e-12
-1.68316483311e-12
5.54736390646e-14
-6.0389173334e-14
2.55059384809e-13
-4.46821934791e-12
4.84195132629e-12
-6.85562128578e-13
1.17159938591e-13
-4.65422520902e-14
6.40796173381e-14
-5.04927736055e-12
5.1258888409e-12
-1.75042273655e-13
8.08934279475e-14
-2.43752865952e-14
-1.13034418757e-14
-5.15510051624e-12
5.16467802133e-12
-1.48872614522e-14
4.09884847703e-14
-1.79303086949e-15
-9.91206790261e-15
-5.20536762552e-12
5.22849064985e-12
-5.7224698389e-15
1.02725079522e-14
-7.44494153619e-15
-1.46156966254e-15
-7.06141860748e-15
3.06532812765e-13
-7.13394185631e-13
5.73029943624e-12
3.28757427795e-13
-6.52195491147e-13
3.14952877592e-11
-4.35089737121e-17
-9.45253737512e-13
-9.50106346674e-13
-7.03293455683e-13
-9.24987058234e-13
-7.06502036632e-13
-6.67908618328e-12
-6.65678212173e-12
-6.62727288519e-12
-6.60470237382e-12
-6.91973269324e-13
-9.50476977728e-13
-6.77483847662e-13
3.38911952554e-11
-2.635012153e-17
-3.89552509933e-13
-5.33047088916e-13
-4.31860399809e-13
-5.11966819375e-13
-4.26253865363e-13
-2.53029519188e-13
-3.88488100708e-13
-2.42748680703e-13
3.59908470678e-11
8.47948777045e-18
-6.57039870798e-14
-4.88850254134e-13
-5.98843530698e-13
-4.68790826879e-13
-5.88765221637e-13
3.83432961872e-14
-4.3264787539e-14
7.11480539187e-14
9.00557469126e-12
3.70663107116e-17
2.7716795267e-13
-1.15930863464e-12
-1.62266638525e-12
-1.1215579495e-12
-1.59943304115e-12
5.26282131912e-13
4.16765843808e-13
5.75945065452e-13
1.17399804287e-11
8.6013066228e-12
1.12252985057e-11
-2.97321804291e-12
-4.74121552863e-13
8.69419415904e-12
2.98674778198e-12
7.71975196832e-13
-9.17573754203e-14
-8.51446770694e-13
-1.41589929703e-12
6.48802866864e-13
1.57597724462e-12
1.34323330033e-13
4.58286532702e-11
2.10841748731e-17
-1.60957460977e-12
3.46567787001e-12
4.08437227145e-12
3.42653641525e-12
3.85474691571e-12
-5.88745790351e-12
-2.28169438267e-11
-6.04436352217e-12
-2.26846893948e-11
-6.73784915318e-13
-2.52447366919e-12
-1.63002971146e-12
3.77261510643e-11
-3.24284575758e-18
-3.22021881747e-13
2.41576158483e-12
1.89089333749e-12
2.18339216548e-12
1.67823146878e-12
-1.89566564659e-13
-6.80935336709e-13
-4.51187793604e-13
3.50160096556e-11
-1.2990147853e-17
-8.68301386548e-14
8.81529856622e-13
5.59419884231e-13
7.37122500857e-13
4.57447353887e-13
-8.56943971701e-14
-1.93718373058e-13
-1.53108672268e-13
3.45426543162e-11
-2.63544782677e-17
-2.96992757192e-14
1.9533303645e-13
9.08988015268e-14
1.43191380464e-13
6.36183808892e-14
-2.75927297396e-14
-6.7673219597e-14
-4.93898038423e-14
8.80890325705e-12
-2.76844967018e-17
2.75848282187e-14
3.2150189992e-14
5.23145104545e-14
2.8782374475e-14
7.54576588331e-14
9.23518784784e-12
7.92292524416e-12
8.28996231075e-12
6.19344021994e-14
9.56256434468e-15
4.50844794097e-14
-4.10046221877e-14
4.13486434958e-14
8.8322473892e-12
2.73676186516e-14
-5.10577102685e-14
3.06205026698e-13
5.94585551599e-18
5.67005684894e-12
-3.28770020667e-13
-6.47497800802e-13
3.14953145986e-11
-9.50128518339e-13
-9.50471042818e-13
-6.65677785869e-12
-6.67909786175e-12
-6.60469743328e-12
-6.62728904069e-12
-7.03305753191e-13
-9.25014878449e-13
-7.06517972335e-13
-6.77476493711e-13
-9.45270122106e-13
-6.91981238632e-13
3.3891217432e-11
-5.33062056331e-13
-3.88488264067e-13
-4.31864454427e-13
-5.11986558065e-13
-4.26258503057e-13
-2.42743489826e-13
-3.89563002203e-13
-2.53030568455e-13
3.59908636387e-11
-4.88854792062e-13
-4.32683747764e-14
-5.98835240119e-13
-4.68795942207e-13
-5.88753501729e-13
7.11493476589e-14
-6.57040534963e-14
3.83521428774e-14
1.17399735694e-11
-1.15930065005e-12
4.16760734484e-13
-1.62264794942e-12
-1.12155007049e-12
-1.59941333318e-12
5.75940469836e-13
2.77170772572e-13
5.26292380996e-13
9.00558729957e-12
1.12252917559e-11
8.60131924089e-12
-4.85410187575e-13
-9.68379798664e-18
1.44352506219e-11
-2.98673376076e-12
7.76884083139e-13