/*--------------------------------*- C++ -*----------------------------------*\
  =========                 |
  \\      /  F ield         | OpenFOAM: The Open Source CFD Toolbox
   \\    /   O peration     | Website:  https://openfoam.org
    \\  /    A nd           | Version:  7
     \\/     M anipulation  |
\*---------------------------------------------------------------------------*/
FoamFile
{
    version     2.0;
    format      ascii;
    class       volVectorField;
    location    "8";
    object      U;
}
// * * * * * * * * * * * * * * * * * * * * * * * * * * * * * * * * * * * * * //

dimensions      [0 1 -1 0 0 0 0];

internalField   nonuniform List<vector> 
5218
(
(0.0394627752551 0.00622635770314 0.00617868093192)
(0.0275105565078 0.00443665338211 0.00215285945968)
(0.018649300317 0.00112988252218 0.000505567751319)
(0.015527654389 0.000961773844461 -8.55989112835e-06)
(0.0134802955832 0.00251625155332 -0.000469315802965)
(0.00866910531207 0.00661360165731 -0.00102470159062)
(3.70634677342e-05 -0.00222095970163 0.000236999161096)
(0.00813886367894 -0.00199038956021 -0.000383780721442)
(0.0125324450438 -0.000225187006585 -0.000270770855716)
(0.0138868968298 0.000249563828687 -9.23733489844e-05)
(0.0141332393522 0.000160957691928 1.04799960676e-05)
(0.0141922139095 -0.00023577504036 0.000331283956083)
(0.0388533187207 0.00125729311098 0.00607283241021)
(0.0297572616974 0.00325542952377 0.00238865353222)
(0.0248978903578 0.00164604906832 0.000702672456323)
(0.023939621054 0.00182804890955 9.44401785182e-05)
(0.0265674158264 0.00539679838527 -0.00061276602064)
(0.0361114727597 0.0200743704975 -0.00290707309078)
(0.0150040463986 0.0217823203704 -0.0007016870377)
(0.0222274417247 -0.022552490262 0.00328499565129)
(0.0232517021858 -0.00697515175272 0.000112392226627)
(0.0216875565684 -0.0010950009554 3.43887004225e-06)
(0.0210387622099 0.00026881853997 0.000142036171569)
(0.0208920666031 0.000294590705091 0.000190512114615)
(0.0207859701946 1.22740896418e-05 0.000445529054441)
(0.0387757243449 -0.00015008342931 0.00607782399214)
(0.0294471627932 -0.00112851211795 0.00233170876931)
(0.0256373686407 -0.000611690406738 0.00065905016733)
(0.0257555225167 -0.000733651375612 4.3528847321e-05)
(0.0317764734092 -0.00244623767853 -0.000770182528535)
(0.057030848929 -0.0107286930785 -0.00226286874553)
(0.163760477782 -0.0701157630297 -0.00556209798377)
(0.306325004054 -0.00732018160277 0.000714613850534)
(0.27090580161 0.0126686966868 0.00943411254586)
(0.0676783033727 0.0251666903809 0.00336272117491)
(0.0335713060149 0.00429583863667 0.000491824442493)
(0.0242268541739 0.000574653976202 0.000223909194294)
(0.0221945237494 -0.000104517550655 0.000243873762858)
(0.0219256434836 -0.000131862327088 0.00025126576233)
(0.0218120855128 -3.85887929505e-05 0.000542756263332)
(0.0389246789411 -0.00185820659822 0.00604843653498)
(0.0297933653382 -0.00468424093968 0.00236109170798)
(0.022988492263 -0.00197728915342 0.000626328679274)
(0.0205968879431 -0.00192254377221 1.44427947118e-05)
(0.0201516186341 -0.00496803205125 -0.000583207826052)
(0.0198904418832 -0.0143007533632 -0.00163750659213)
(0.00420516541409 -0.00825975288698 -0.000173144113137)
(0.00459449659225 0.00795450554124 0.000910520135219)
(0.0144556179427 0.00485637959406 -0.000343235107707)
(0.0175954595549 0.000898919463922 -0.000240212150356)
(0.0183518411047 -0.000278304672617 -2.41212804316e-05)
(0.0184559475759 -0.00027912781505 8.64294953754e-05)
(0.0183750404756 9.86890908261e-05 0.000436411476269)
(0.0390199580617 -0.00891479977848 0.00626533683035)
(0.0130534690159 -0.00191294417508 0.000447628477397)
(0.00700027567678 -0.00028488437024 8.63243842941e-05)
(0.00559858125236 -0.000216806117563 -1.68700923564e-05)
(0.00476517622941 -0.000505256232731 -0.000159246357912)
(0.00255654820902 -0.00142595353332 -0.000457152615007)
(-0.00059429345502 0.000413532951904 6.33576360409e-05)
(0.00222193365216 0.000339829255606 -1.93210771699e-05)
(0.00435757683648 -9.0451875877e-05 -5.88657862151e-05)
(0.00496768688956 -0.000162817277878 -2.85101373343e-05)
(0.00502014695655 -0.00011658999571 3.18602616494e-06)
(0.00505096947774 9.06458359693e-06 7.81553075469e-05)
(0.0531037528808 0.0148379394163 0.00814015765885)
(0.055446560888 0.00921421265594 0.00849974564024)
(0.0493158247131 0.00347189064715 0.00317791533576)
(0.0450284224845 0.00254401631891 0.000146126021949)
(0.0389367650155 0.00546235113925 -0.00241593342359)
(0.0228407766724 0.0120590132617 -0.00508712929712)
(0.0056678005294 -0.00638589435884 0.00265646588337)
(0.0298219744454 -0.00976974016353 -0.000980153849975)
(0.0413333513649 -0.00362611108823 -0.00134187573714)
(0.0443364953361 -0.000408383680907 -0.000776215960991)
(0.0444504227644 0.000459125206665 -0.000372880719343)
(0.0450270402856 -0.000200135136665 -0.000141012084166)
(0.0526374696395 0.00524944525999 0.00866221252352)
(0.0752792936554 0.005799222645 0.00886093268678)
(0.0832143548304 0.00388532215742 0.00431316790288)
(0.0876930112013 0.00428066368212 0.00052628416313)
(0.0951367029107 0.0124470891954 -0.00449794200221)
(0.0843494445188 0.0351124635189 -0.00965251327433)
(0.0402123414591 0.047663459105 -0.00928598048453)
(0.119837731856 -0.0614553691699 0.0166455821871)
(0.102380216661 -0.0264860502932 0.00687745164415)
(0.093889810645 -0.00904928205182 0.00240140729313)
(0.0881362815911 -0.00241719805183 0.000755116115889)
(0.0862046565984 -0.000753143714904 -0.000163109423851)
(0.0751852954366 -0.000255368479286 0.000130381027575)
(0.0523416976579 -0.00163181174661 0.00860299461893)
(0.075279413415 -0.00579967133788 0.00886100928123)
(0.0832144297619 -0.00388563777505 0.00431321821252)
(0.0876930753122 -0.00428071582696 0.000526287249625)
(0.0951367843596 -0.0124468655622 -0.00449797485355)
(0.12310547995 -0.0175870484775 -0.00969573521831)
(0.234894425855 -0.106061573321 -0.0166833817903)
(0.532747418038 -0.0253994274693 -0.000235889220526)
(0.498142041515 0.0191095164715 0.0119789454634)
(0.119837693803 0.0614551494557 0.0166456553154)
(0.10238019093 0.026485802627 0.00687751176304)
(0.0938898136578 0.00904907465596 0.0024014280511)
(0.0881362651188 0.002416905745 0.000755103566101)
(0.0862047030154 0.000752759211445 -0.000163110925767)
(0.080119070048 0.000180027711983 0.000633896189498)
(0.0529364853732 -0.00930944736057 0.00862193175658)
(0.0653819623856 -0.0113253374286 0.00979608112477)
(0.0651196875581 -0.00586441351863 0.0042116705627)
(0.0632303091222 -0.00468343867245 0.000489384041288)
(0.0601361611085 -0.00984503657103 -0.0029942951573)
(0.0496618646723 -0.0252345888652 -0.00763584333933)
(0.0130650837415 -0.0197544591189 -0.0048422307117)
(0.025207708304 0.0184198888184 0.00680103958578)
(0.0538558062348 0.0194329187983 0.000860045169861)
(0.062195039858 0.00740948413693 -0.000605971762181)
(0.0630817506081 0.00145419847212 -0.000450265406668)
(0.0623972912245 -0.000314918365044 -0.000175264052447)
(0.062876681226 0.000679806586743 -7.64862503752e-05)
(0.049979838959 -0.0133880642308 0.0043923215745)
(0.0278499468635 -0.00135419100752 0.00482450675634)
(0.0214828628746 -0.000483808638934 0.00125826088677)
(0.0186663959951 -0.000328002454965 -0.000112699116852)
(0.0150525880491 -0.000736359990835 -0.00127642042773)
(0.0107729225438 -0.00436941528763 -0.00262643021039)
(-0.00026111336973 0.00149221210791 0.00101766871166)
(0.0100693677422 0.00123288709093 -0.000997420917619)
(0.016514785754 0.000265817564747 -0.00092501863397)
(0.0182640749695 -0.000176714646451 -0.000561948122427)
(0.0181761148095 -0.000280548175927 -0.000386917038336)
(0.0242034388411 -0.000801154858882 -7.81340293484e-05)
(0.0522791434996 0.0146031516391 0.00140532343973)
(0.0564605229171 0.00904230423041 0.00211242302974)
(0.0550722033745 0.00358168145246 0.000951382515849)
(0.0524239717382 0.00262103150728 2.33500465984e-05)
(0.0450716477393 0.00552425723563 -0.000783625621386)
(0.0247368063204 0.0117204309979 -0.00147162089005)
(0.00576600355068 -0.00635521445033 0.000848941329683)
(0.035988939087 -0.0121137372782 3.93055795702e-05)
(0.0507163194666 -0.00518200183647 -0.000255338037789)
(0.0544447476027 -0.000939511556518 -0.000209279951887)
(0.0543608207814 0.000574967827344 -0.000143068647288)
(0.0545418075007 4.46251874409e-05 -0.00012010424087)
(0.0517931151745 0.00521466365878 0.00157688616099)
(0.0781707819721 0.00583932150151 0.000145365778045)
(0.0904820300102 0.00407686654188 6.69390461232e-05)
(0.0968818542929 0.0043309496314 -1.74833897534e-05)
(0.10321180505 0.0125431746893 -7.94385274668e-05)
(0.0916767292728 0.0359858600135 -0.00245117462906)
(0.040922217521 0.0479450317543 -0.00277473365253)
(0.120355835517 -0.0630643842355 0.000152938179344)
(0.111166074316 -0.0292385558107 5.82358126298e-05)
(0.106710958516 -0.0109294002415 4.19874617994e-05)
(0.101644523321 -0.00326945754707 2.68028337611e-05)
(0.0994751726041 -0.00100868072656 -1.13384753595e-06)
(0.0937026466965 0.000196555052292 6.83121439371e-06)
(0.0514623294101 -0.0016189580662 0.00156845246295)
(0.0781708879308 -0.00583972442775 0.000145382904377)
(0.0904821030277 -0.00407715089115 6.69592567382e-05)
(0.0968819365517 -0.00433098323186 -1.7462753182e-05)
(0.103211892555 -0.0125429563645 -7.94253544193e-05)
(0.132834578869 -0.018036645168 -0.00247104659921)
(0.238504335815 -0.107194192444 -0.0036637296916)
(0.540027999859 -0.026232803428 -0.000383792912061)
(0.501945806812 0.018985658323 0.00176953299239)
(0.120355842025 0.0630643310204 0.000152986923735)
(0.111166157794 0.0292385024429 5.82808287773e-05)
(0.106711011274 0.0109292445584 4.20118245417e-05)
(0.101644484437 0.00326912904073 2.6832879454e-05)
(0.0994750426548 0.0010081902444 -1.11387728716e-06)
(0.100198478064 9.1880997978e-05 0.000103663061332)
(0.0521439506815 -0.00920971019456 0.00155008016506)
(0.0680244841345 -0.0113221620748 0.00254336597298)
(0.0739091077713 -0.00621446133769 0.00128660158983)
(0.074490863246 -0.00499202243333 0.000140789039288)
(0.0701977612026 -0.0102752591764 -0.000924815255537)
(0.0543410476559 -0.0253683688895 -0.00210659892842)
(0.0131421390286 -0.0195674442037 -0.00149659324983)
(0.0266082250248 0.018671775091 0.00171416699656)
(0.0638166657858 0.0231581519624 0.000602583159815)
(0.076422825712 0.0100523258326 -6.70888455021e-06)
(0.0782903140649 0.00263497437395 -0.000109158214902)
(0.0774324053063 -0.000145895328972 -9.48075563795e-05)
(0.0776682704257 0.000182860347796 -0.000111610070562)
(0.0496455744244 -0.0131454016463 0.000817219038082)
(0.0273196344025 -0.00119587984986 0.00101691474357)
(0.0235201978713 -0.000513839002539 0.00036482938834)
(0.0213013249405 -0.000329241257621 -5.11593752877e-05)
(0.0169854717703 -0.000701503574003 -0.000405510485729)
(0.0117255133639 -0.00453867532075 -0.00119066421104)
(-0.000861615549865 0.00140187337656 0.000571531830167)
(0.0121967967516 0.00165912807249 -0.000145358376536)
(0.0200639633469 0.000505327984123 -0.000216095185045)
(0.0220794313444 -0.000167394949145 -0.000153790420234)
(0.0217500056565 -0.000397970054969 -0.000111443584913)
(0.0296202203941 -0.00146038811699 -0.000116268797976)
(0.0525482660771 0.0145549849497 -0.00417220611924)
(0.0565056329523 0.009175725352 -0.0056005736328)
(0.0537513886809 0.0036543124013 -0.00250726174316)
(0.0504978100817 0.00269394778189 -0.000262473477695)
(0.0434764532532 0.00564391937304 0.00174149398558)
(0.0243662992093 0.012008807007 0.00368221349085)
(0.0058323121586 -0.00651529967867 -0.00193155591942)
(0.0343741648768 -0.011639493122 0.000209847100557)
(0.0479805174716 -0.00477146008171 0.000848853948585)
(0.0514117023061 -0.000773369697379 0.000563855528887)
(0.0513997264549 0.000558321911291 0.000240622947458)
(0.0517303244916 5.88193884675e-05 7.13156877737e-05)
(0.05204216245 0.00518640524582 -0.00469740033401)
(0.0751441919021 0.00574003880964 -0.00860923614403)
(0.0831824302232 0.00388985168584 -0.00422000514231)
(0.0877421130448 0.00430229955657 -0.00057196607846)
(0.0952040796979 0.0124729155936 0.00435905799069)
(0.0892080105319 0.0360910907666 0.00682489218204)
(0.0407413134403 0.0480423643818 0.00458814152565)
(0.119782419515 -0.0617005751487 -0.0166101685146)
(0.102354418736 -0.0265005431975 -0.00699678427192)
(0.0939744844117 -0.00904532809582 -0.00241735150883)
(0.0882460806929 -0.002415106078 -0.00073777798049)
(0.0863224691369 -0.000749268143767 0.000150866270269)
(0.0872832919404 0.000282230309716 5.79137008312e-05)
(0.0517135665192 -0.00161171006472 -0.00467863320392)
(0.0751442754176 -0.00574037772812 -0.00860926064735)
(0.083182502565 -0.00389007930047 -0.00422002027167)
(0.0877421996391 -0.00430228110943 -0.000571948052039)
(0.0952041549276 -0.0124726628457 0.00435908581953)
(0.129669099393 -0.0180671611012 0.0069138816703)
(0.237633939589 -0.107002318697 0.0104394559265)
(0.53918366236 -0.0261583687966 0.000548253858889)
(0.501927548637 0.0190002063979 -0.00331896474237)
(0.119782384599 0.0617008145477 -0.0166100732535)
(0.102354375032 0.0265006321771 -0.00699671265223)
(0.0939744441898 0.00904524395681 -0.0024173534543)
(0.0882460309684 0.00241484450162 -0.000737784199909)
(0.0863224428756 0.00074888163511 0.000150837046142)
(0.0931873205327 1.09542131852e-05 -0.000249174470754)
(0.0524169641994 -0.00916788668748 -0.00461897491544)
(0.0676730698885 -0.0112253056865 -0.0067037196527)
(0.0716517790074 -0.0060881623168 -0.00335762328093)
(0.0713260612554 -0.00501033433068 -0.000578960809074)
(0.0673688492336 -0.010483942127 0.00214604944379)
(0.0531793972294 -0.0257430973675 0.00540188265044)
(0.0131397860538 -0.0196747571399 0.00239892991344)
(0.0268369624763 0.0191263528854 -0.00523403559812)
(0.0612378033124 0.0226023742472 -0.00167064303047)
(0.0720418641906 0.0094122955805 0.00011494559381)
(0.0734071422621 0.00227286301779 0.000277024652627)
(0.072608200241 -0.000243542651534 8.39452085838e-05)
(0.0730290181947 -1.1135793779e-06 1.36521601958e-05)
(0.0496871704154 -0.0130643025196 -0.00135089077751)
(0.0276955014835 -0.00127744504792 -0.00305165855344)
(0.0232435454069 -0.00055069378836 -0.0011491502258)
(0.0207426561788 -0.000355059921936 -4.78453365739e-05)
(0.0165784176724 -0.000741020925145 0.000859710908697)
(0.0116590938562 -0.00466883517347 0.00178388203175)
(-0.000808776979295 0.0014724249371 -0.000682241198207)
(0.0116804966855 0.00160080663483 0.000609467023811)
(0.0190970415628 0.000458594398502 0.00069530049479)
(0.0210195801826 -0.000171379918664 0.000417868852508)
(0.0207612913069 -0.000374753099566 0.000218518736161)
(0.0289487972117 -0.00143554468818 7.56895442878e-05)
(0.0541009239504 0.0142856492545 -0.0137707927137)
(0.0485954234443 0.00826328713763 -0.00824775456086)
(0.0394702114604 0.00304048784819 -0.00256438505392)
(0.0347636762546 0.00226756233124 -0.000161388905609)
(0.0301794016524 0.00495397356193 0.00181967861596)
(0.0186571216156 0.011364145543 0.00427236306471)
(0.00356508697464 -0.00550568460022 -0.0018049887665)
(0.021462445788 -0.00671902800348 0.00126782204393)
(0.0302385006426 -0.00203729127626 0.00123492854744)
(0.0327151000095 5.64129812153e-05 0.000597439343458)
(0.0329921224831 0.000458989883831 0.000190007926552)
(0.0333765989695 0.000137240515893 -1.8604580423e-05)
(0.0528599902166 0.00458160307689 -0.0137788058039)
(0.0570914986697 0.00621447089496 -0.0100596969408)
(0.0557184854548 0.00364561476469 -0.00405177964269)
(0.0556284172325 0.00361185721714 -0.00104180965369)
(0.0593981496815 0.00944176554614 0.00167127167687)
(0.0694628405276 0.0321695853933 0.00958266233818)
(0.0380457519127 0.0467737232797 0.00994195945638)
(0.058685388613 -0.0447717316959 -0.0140896361391)
(0.0608518592445 -0.0191706609171 -0.00183481708197)
(0.0557105151532 -0.00516197990549 -4.19871368322e-05)
(0.0530479099308 -0.000603972668545 -0.000115989850216)
(0.0520502448636 0.000302123573232 -0.000348044425393)
(0.0526965858201 5.63505458896e-05 0.000151181441781)
(0.0525697971414 -0.00141774855892 -0.0137731148802)
(0.0571407193809 -0.00230862393029 -0.00993470559529)
(0.0577128597596 -0.00149266438792 -0.00392726722656)
(0.0595695404905 -0.00153633608173 -0.000720998739583)
(0.0684674465413 -0.004354418809 0.00316644184461)
(0.102303112253 -0.0164677669547 0.00968939878864)
(0.222343897422 -0.100770107045 0.020637712242)
(0.52676459232 -0.0245989581109 -0.000558419731878)
(0.491551246585 0.0190554571413 -0.0170887114888)
(0.148813854586 0.0488906840446 -0.0235532035439)
(0.0828908908935 0.0118891583715 -0.00766193381899)
(0.0621961604658 0.00289114253471 -0.0017805501904)
(0.0564706902651 0.000444779318024 -0.000593423891094)
(0.0550363551333 -9.69482578587e-05 -0.000536094007485)
(0.055830110057 -6.38274759007e-05 -0.000230370730505)
(0.0533912897702 -0.00841892478517 -0.0137619111421)
(0.055555970712 -0.00874080901914 -0.00918473061524)
(0.0505143401902 -0.00440335982733 -0.00320609353953)
(0.0475241348314 -0.0038931742445 -0.000354456489152)
(0.0457185398642 -0.00895745341893 0.00221232367387)
(0.0406026435603 -0.0237618440086 0.00680183657793)
(0.0125864610287 -0.0196656544064 0.00501820779382)
(0.017572862756 0.0172127500586 -0.00524102811406)
(0.0384603814259 0.0137911915932 0.000486291023688)
(0.044177798443 0.00417992869339 0.00094709689663)
(0.045121489367 0.000289317817222 0.000407374977034)
(0.0450204658028 -0.000465629254028 3.34699611586e-05)
(0.0453900334978 6.74175960433e-05 -1.74417756282e-05)
(0.05026672806 -0.012844957808 -0.0062000862583)
(0.0272295471597 -0.00206009685667 -0.00504156398239)
(0.0185081312508 -0.000547185094961 -0.00115702004462)
(0.0152638564616 -0.000340625648077 -3.18325896228e-05)
(0.012285494297 -0.000725387586039 0.000828516562008)
(0.00972844392055 -0.00454280434995 0.00226831472976)
(-0.000598121857263 0.00153476380231 -0.000741825171105)
(0.0074499746087 0.000842421952873 0.00110567058023)
(0.0126340321613 9.27026560413e-05 0.000867211052993)
(0.0141710027813 -0.000188457837783 0.000446539045975)
(0.0142842405131 -0.000206818651682 0.000235415459451)
(0.0143843502213 -0.000408649725683 0.000281095547413)
(0.0502667316701 0.0128449190597 -0.00620009219578)
(0.0385106684462 0.00466269679821 -0.00826830798425)
(0.0390042227924 0.00874848484304 -0.00628157973957)
(0.0172237695784 0.00295357266004 -0.000803002099382)
(0.0272294574092 0.00206005742199 -0.00504153297433)
(0.0216768117198 0.00102713371269 -0.00242129734993)
(0.0129664558921 0.00179710461206 -0.000399635740955)
(0.00783468237268 0.000256624259622 -8.87890134108e-05)
(0.0185080209521 0.000547160867539 -0.00115699457487)
(0.0166028661946 0.000356963300361 -0.000463807231887)
(0.00706269255896 0.000340008159662 -5.53579724841e-05)
(0.0058816871466 0.000104723910493 2.36385925886e-05)
(0.0152637132215 0.000340619108968 -3.18137033965e-05)
(0.013979258787 0.000448581663352 0.000373507331376)
(0.00562571707272 0.000273204085646 2.1208374896e-05)
(0.00501614469139 0.000322183787665 0.000135784609976)
(0.0122853648232 0.000725419131556 0.000828498411599)
(0.00965625399274 0.00116023907567 0.00139990955175)
(0.00475975854656 0.000594714436203 0.00015710609318)
(0.00348004011804 0.00108889352819 0.000374649831086)
(0.00972834538886 0.00454286187468 0.00226832025199)
(0.00257290314219 0.00152718646368 0.000422275475475)
(-0.00109440603877 0.000624839519606 -0.00105870084621)
(-0.000779583681447 0.000267206515849 -0.000106270624658)
(-0.000598123590342 -0.00153475892495 -0.000741830926205)
(0.00289982030946 -0.00103031409765 0.000924406982866)
(-0.000781671837087 -0.000443920165644 -5.76381907377e-05)
(0.00132319354781 -0.000512966345995 1.65814722684e-06)
(0.00745014521748 -0.000842455129888 0.0011054879692)
(0.0106326640784 -0.000454460826521 0.00109309955285)
(0.00221631590586 -0.000399591147293 -1.31040246121e-06)
(0.00397709818875 -8.96291556463e-05 7.68857807211e-05)
(0.0126341829495 -9.27172488201e-05 0.000867165483417)
(0.0136925603566 9.17507467313e-05 0.000660074161789)
(0.00434414598037 6.34515934654e-05 3.18873605126e-05)
(0.00490339921061 8.39897754605e-05 6.10429595416e-05)
(0.0141711156483 0.000188436334275 0.000446560820278)
(0.0143120898602 0.00020458313752 0.000312498375798)
(0.00496825752197 0.000171486410209 1.64859623158e-05)
(0.0050342259836 5.58829716636e-05 2.80390816041e-05)
(0.0142842629858 0.00020681405361 0.000235474410361)
(0.0142077345306 0.000226583173838 0.000289269892542)
(0.0050108231661 0.000142815361621 -2.48981742264e-06)
(0.00502561569861 -2.86000186432e-05 -1.07066123184e-05)
(0.0143842689699 0.000408646435774 0.000281067101696)
(0.0213705205535 7.44305196094e-05 2.98954165025e-05)
(0.00505767044151 3.66380700057e-05 -6.40738777095e-05)
(0.00528997799752 -7.59850392071e-05 -0.000104598091714)
(0.00195184455298 0.00269266158581 0.00149063906125)
(0.0406025281902 0.0237620295824 0.00680183027761)
(0.030139842714 0.0313757732817 0.0082166958391)
(0.00872193095058 0.00664761577017 0.00100401687712)
(0.00080275993653 0.00104033233213 7.7637079863e-05)
(0.0199494589351 0.0143525687906 0.00162763541403)
(0.0102580236497 0.0123499641198 0.00219420434424)
(0.0125864434963 0.0196657198049 0.00501819267548)
(0.00420852779656 0.00826726711058 0.00017223946132)
(-0.000861882865584 0.00164014077564 -0.00228444107779)
(-0.000492130386046 -0.000586974803585 -0.00670968025027)
(-0.000663549264543 0.000332789309581 -0.000183571520978)
(-0.000727890215639 -0.00272206200311 -0.000150781219253)
(0.222343847106 0.100770290206 0.0206377209313)
(0.517621258979 0.0697588361273 0.00563310449363)
(0.0150112733093 0.0217941101 0.000698548089408)
(0.163760345609 0.0701210592002 0.00555461305154)
(0.303312376804 0.0291089685345 -0.000430771218618)
(0.526764523339 0.0245990362711 -0.000558455422986)
(0.533031464978 -0.000156608394681 -0.0118306242461)
(0.30629028248 0.00731928450358 -0.000714670284894)
(0.292871623096 -0.00126867830674 -0.00309045749539)
(0.0193021785408 -0.0266521062103 -0.017497318308)
(0.491551222608 -0.0190554094149 -0.0170886855834)
(0.225738803448 -0.0896349315488 -0.0353225176622)
(0.000997269488517 -0.0101672554595 -0.00139818038531)
(0.270976901305 -0.0126753123405 -0.0093827019848)
(0.119147888924 -0.057357979131 -0.00796969447236)
(0.517621277134 -0.0697587513171 0.00563313690989)
(0.0380457628887 -0.0467736094491 0.0099419581048)
(0.163760378507 -0.0701209199696 0.00555461526301)
(0.30331236277 -0.0291089357514 -0.000430796877954)
(0.0150112726911 -0.0217940269077 0.000698551028729)
(0.53303148829 0.000156599253468 -0.0118306754805)
(0.306290317462 -0.00731924059084 -0.000714669103764)
(0.292871601345 0.00126864182896 -0.00309045048555)
(0.225738786938 0.0896350084076 -0.0353225077993)
(0.0193022636241 0.0266522716049 -0.0174973283818)
(0.270976950558 0.0126752915818 -0.00938268404585)
(0.119147864351 0.057357986732 -0.00796968850538)
(0.000997326118533 0.0101674825279 -0.00139817441387)
(0.0301398683102 -0.0313756628602 0.00821668323815)
(0.0186572479988 -0.0113640211923 0.00427237741883)
(0.00195184953861 -0.00269264746398 0.00149062844187)
(0.0199495616437 -0.0143524217032 0.00162762922572)
(0.0102580372509 -0.0123498645418 0.00219420132847)
(0.00872203895743 -0.0066474602338 0.00100401685382)
(0.000802742040355 -0.00104031360242 7.76441732093e-05)
(0.00420853365596 -0.00826720630896 0.000172242151848)
(-0.000492172924886 0.000587332584187 -0.00670938810022)
(-0.00086192693166 -0.00163986939577 -0.00228415979178)
(-0.000727896430701 0.002722265813 -0.000150732308364)
(-0.000663599929962 -0.000332754693743 -0.000183577336933)
(0.0385107528212 -0.00466273833457 -0.00826833970075)
(0.039004223957 -0.00874850288994 -0.00628157824454)
(0.0172237996551 -0.00295360867493 -0.00080299474443)
(0.0216769116817 -0.00102716919501 -0.00242133810205)
(0.0129664865063 -0.00179714736458 -0.000399627364477)
(0.00783472740867 -0.000256659156989 -8.87795922895e-05)
(0.016602989295 -0.000356969401772 -0.000463848565898)
(0.00706273219914 -0.000340040890438 -5.5352994054e-05)
(0.00588174243737 -0.000104734390482 2.36374229052e-05)
(0.0139794109799 -0.000448569781742 0.000373486377254)
(0.0056257777841 -0.000273220583937 2.12028407202e-05)
(0.00501621412997 -0.000322175886665 0.000135786500794)
(0.00965639520133 -0.0011601880435 0.00139996333959)
(0.00475981205147 -0.00059471246978 0.000157108226817)
(0.0034800935034 -0.00108884084395 0.000374629684048)
(0.00257294591027 -0.00152715540532 0.000422236421669)
(-0.00109433207812 -0.00062481368458 -0.00105867219838)
(-0.000779812611811 -0.000267061475336 -0.000106190509574)
(0.00289950784768 0.00103026965695 0.000924604293865)
(-0.00078174560906 0.000443800816402 -5.77846655951e-05)
(0.00132314532039 0.000512926285629 1.62383468965e-06)
(0.0106325141055 0.000454421392754 0.00109313675737)
(0.00221630940031 0.000399610727944 -1.31190451432e-06)
(0.00397705612674 8.95829448788e-05 7.6904498255e-05)
(0.0136924364233 -9.17725134788e-05 0.000660059948532)
(0.00434409142319 -6.35274457496e-05 3.19024117248e-05)
(0.00490334045874 -8.39988324674e-05 6.10252210095e-05)
(0.0143120246045 -0.000204588602024 0.000312452439056)
(0.00496819978633 -0.000171538270262 1.64822165369e-05)
(0.00503419813655 -5.59157736329e-05 2.80181985766e-05)
(0.014207763983 -0.000226598288452 0.000289249387924)
(0.00501081417313 -0.000142842743188 -2.49039206205e-06)
(0.00502566676627 2.86291294228e-05 -1.06991964134e-05)
(0.021370682253 -7.43956198389e-05 2.99042118022e-05)
(0.00505771355035 -3.66357663596e-05 -6.40681964914e-05)
(0.00529002508892 7.60056573445e-05 -0.000104590838776)
(0.0390199564497 0.00891476210176 0.00626533461086)
(0.0173968725776 0.00321074862364 0.000847919320794)
(0.0502269794952 0.013354251044 0.00641514627962)
(0.0411894678653 0.00704366099219 0.00825458775561)
(0.0130534309256 0.00191287612836 0.000447629593019)
(0.00777867363553 0.000212752671163 0.000150156204013)
(0.0360974326303 0.00473347491912 0.00686904680714)
(0.0268140421361 0.00126328561774 0.00249837722821)
(0.00700022199582 0.000284843379058 8.63177853826e-05)
(0.00583948763712 4.89460782782e-05 5.3789467477e-06)
(0.0252182298952 0.00106200135031 0.00188380022792)
(0.022248618699 0.000506561101921 0.000301921318611)
(0.00559852522392 0.000216787379474 -1.68841143883e-05)
(0.00501809468105 0.000242977452302 -0.00012460631576)
(0.0215058070064 0.000714051242033 0.00014137604344)
(0.0193083959796 0.00101323153453 -0.000852486525379)
(0.00476510644096 0.00050525238799 -0.000159246257783)
(0.0034508666383 0.000978451486694 -0.000411330061708)
(0.0182320944197 0.00156941801933 -0.0010732688091)
(0.0130456797847 0.00294403130578 -0.00204486418386)
(0.00255649895961 0.00142599987525 -0.000457148623102)
(0.00982480976823 0.00401210925613 -0.00225163481986)
(-0.000631600523613 0.000210728013826 9.27273090079e-05)
(-0.000952099044052 0.000366098951418 0.0012087151253)
(-0.000594327525508 -0.000413494256556 6.33517396882e-05)
(0.00134177692234 -0.000453459746682 -1.14489882761e-05)
(-0.000279116639371 -0.00147166923082 0.000818667012131)
(0.00716444139988 -0.00264203341314 -0.000978713574576)
(0.00222196427206 -0.000339763276743 -1.93254195271e-05)
(0.00399412364528 -5.23984327914e-05 -8.66631343868e-05)
(0.0103762889434 -0.00225675248753 -0.00117967531154)
(0.0165479997938 -0.00113090623878 -0.00121760417793)
(0.00435760946486 9.04693523496e-05 -5.88674357942e-05)
(0.00490575980085 7.98176954081e-05 -5.36089509633e-05)
(0.0178655845526 -0.000559988859555 -0.000998294877359)
(0.0198796072518 -6.10207844586e-05 -0.000765519144423)
(0.00496777072341 0.000162718942691 -2.85176066165e-05)
(0.00503633641388 3.0237947178e-05 -1.08411558456e-05)
(0.0201322218287 0.000199338449811 -0.000509009066003)
(0.0204371410551 0.000196964341109 -0.00042891665439)
(0.00502017579903 0.000116451977537 3.21707999644e-06)
(0.00504377085275 -6.66512678329e-05 4.21603131745e-05)
(0.0203790109948 0.000335695688687 -0.000249325771364)
(0.0206491109807 0.000214861160891 -0.000176908902648)
(0.00505095572886 -9.18614748683e-06 7.81842302037e-05)
(0.00527225764996 -0.000133152587353 9.04674814109e-05)
(0.0210300863325 0.000424456413065 6.74060199407e-05)
(0.0214645177876 -0.000149868970339 -6.58810533198e-05)
(0.00079772587252 0.0010349052538 -7.95252672853e-05)
(0.019890385578 0.0143009010306 -0.00163750364087)
(0.0102450434915 0.0123318161403 -0.0021954506307)
(0.018566450334 0.0112676594383 -0.00433216819097)
(0.00194311226347 0.00267566726094 -0.00150286619558)
(0.0404931161538 0.0236671068978 -0.00688600852642)
(0.0300978852928 0.0313033147995 -0.00828169876352)
(0.00420516647934 0.00825979327252 -0.000173152287747)
(0.0125731183547 0.0196372458742 -0.00504217323024)
(-0.000475582538583 0.000226120102979 0.000154432911694)
(-0.000293635877257 -0.00274941577637 0.00034417144117)
(-0.00013513006667 0.000320750606117 0.00243078566391)
(0.00762767820736 -0.0110705622364 0.0106574375004)
(0.163760473455 0.0701158931154 -0.00556208776689)
(0.303343871655 0.0291119074533 0.00042861951449)
(0.0380233411646 0.046731379848 -0.00998338015552)
(0.222331853927 0.100755541365 -0.0206981056345)
(0.517665987685 0.0697648360642 -0.00567191773633)
(0.306324979122 0.00732019260075 0.000714613941018)
(0.292848992891 -0.00127003049764 0.00311754744163)
(0.52682530515 0.0246030944134 0.000527461079568)
(0.533203085436 -0.000147023311285 0.0117600346545)
(0.00138928820015 -0.0102344554688 0.0015614459624)
(0.27090577925 -0.0126687051462 0.00943409825242)
(0.11923451986 -0.0566303489664 0.00816095847446)
(0.0225386017166 -0.0232087753427 0.0203250794427)
(0.491922304423 -0.0190818436371 0.0169610056342)
(0.22732201055 -0.0889190854521 0.0362430120599)
(0.30334382295 -0.0291118875849 0.000428633895385)
(0.0150040387474 -0.021782273291 -0.000701673430207)
(0.222331855776 -0.100755398869 -0.0206981153435)
(0.517665944347 -0.0697647824011 -0.00567192167902)
(0.0380233177399 -0.0467312809906 -0.00998337245058)
(0.292848962685 0.00127004304674 0.00311756523842)
(0.526825372995 -0.0246030399031 0.00052745085468)
(0.533203007053 0.000147060722072 0.0117600286593)
(0.119234575545 0.0566301890958 0.00816095266818)
(0.00138938101325 0.0102344574769 0.00156145195543)
(0.491922559997 0.0190819394692 0.0169609712349)