/*--------------------------------*- C++ -*----------------------------------*\
  =========                 |
  \\      /  F ield         | OpenFOAM: The Open Source CFD Toolbox
   \\    /   O peration     | Website:  https://openfoam.org
    \\  /    A nd           | Version:  7
     \\/     M anipulation  |
\*---------------------------------------------------------------------------*/
FoamFile
{
    version     2.0;
    format      ascii;
    class       volScalarField;
    location    "3";
    object      p;
}
// * * * * * * * * * * * * * * * * * * * * * * * * * * * * * * * * * * * * * //

dimensions      [0 2 -2 0 0 0 0];

internalField   nonuniform List<scalar> 
5218
(
1.03774804086
1.02196452989
1.01843900428
1.01337450866
1.00647474796
0.997708875905
0.0808384572006
0.0667408722233
0.0529849584126
0.0412522129391
0.029395431479
0.0155966313138
1.03544604392
1.02126394381
1.01810972088
1.01349965948
1.00624081797
0.995178310846
0.987283295998
0.0827870474863
0.0659199052058
0.0516888674472
0.0408052885495
0.029799245774
0.0160697838201
1.0351729234
1.02120134416
1.01814930593
1.01358853488
1.00583627677
0.991223812317
0.959282875597
0.555392067634
0.125272568136
0.0901832210848
0.0665208183437
0.0511285945048
0.0405104456605
0.0298027263682
0.0160807204528
1.03575428935
1.02163683142
1.01829256769
1.01348916966
1.00649046756
0.996702067271
0.986366990349
0.0816602521767
0.0662987087605
0.0523992580984
0.0410879874752
0.0296274944109
0.0158877728351
1.04229003468
1.0222847535
1.01884414359
1.01378933026
1.00698546957
0.998781661282
0.0815646941485
0.0688707567467
0.0550776887651
0.0427400292186
0.0306695382088
0.0167083544497
1.02119682508
1.02177564676
1.01867587853
1.01395291498
1.00768371524
0.997320887511
0.0848393531776
0.0671611816624
0.0524520462604
0.0413100479553
0.0301669843865
0.0143636723315
1.019462223
1.02015744231
1.01716836826
1.01239914563
1.00582498307
0.998180309092
0.983771742952
0.0827042562285
0.0651070853653
0.0483312869387
0.037370241004
0.0283291773247
0.0173511314839
1.01920013688
1.02015751704
1.01716847736
1.01239932444
1.00582521858
0.994678698873
0.959509185199
0.528743843515
0.0635357561356
0.0827043605412
0.0651071710141
0.0483313936746
0.0373703695458
0.0283293230417
0.017555803535
1.02028584763
1.02118313671
1.01850184673
1.01406228695
1.00807520392
0.997187067041
0.982637622986
0.0847182099577
0.0676238467537
0.0516690879483
0.0406362183544
0.030461814602
0.0153406055315
1.02510072446
1.02222656752
1.01865197928
1.01347435825
1.00694703663
0.998797690271
0.085154272297
0.0675107887912
0.053496226602
0.0416215375542
0.029879112087
0.0165553045645
1.02059776112
1.02185258673
1.01867306367
1.01423644503
1.00841412604
0.997586037874
0.0859602851757
0.0675419511078
0.0522393679211
0.0413176502325
0.0305833839801
0.0146077943192
1.01872088012
1.02021535623
1.01726650233
1.01260215749
1.00636539322
0.998987162664
0.982896371982
0.082381449569
0.0654930239148
0.0483167810134
0.0372128069609
0.0284531979268
0.0178417631682
1.01846668126
1.02021536803
1.01726657041
1.01260228487
1.00636556135
0.995221585657
0.958617274649
0.51670614466
0.0502784322734
0.0823814530962
0.065493023052
0.0483168310821
0.0372128989902
0.0284532974963
0.0178570318089
1.01960786131
1.02121111135
1.01859001604
1.01432868795
1.00887897811
0.997855111027
0.980954759018
0.0851784091134
0.0683262700456
0.0514379932138
0.0403426902252
0.0306765073348
0.0157793103657
1.02440502047
1.02228311917
1.01866018571
1.01370096305
1.00742783817
0.998902276543
0.086767314543
0.0678864870857
0.0535293424218
0.0418005670068
0.0302291380333
0.0166955918291
1.02065420295
1.02172011532
1.01859575779
1.01409355857
1.00816614293
0.997512047352
0.0853794405586
0.0675529781101
0.0524080962708
0.0413614299333
0.0304616450129
0.0145259297233
1.01895816674
1.02012558081
1.01714220589
1.01239744918
1.0058561636
0.998545654414
0.982994630801
0.082653103527
0.0652918142304
0.0484575044527
0.037433526029
0.0283635935969
0.017452589512
1.01873430241
1.02012555204
1.01714222792
1.0123975203
1.00585626836
0.994831737831
0.9589287235
0.518252987338
0.0514637557724
0.0826530494336
0.0652917879874
0.0484575119588
0.0374335546996
0.0283636558897
0.0175101011364
1.01974974586
1.02114432303
1.01853434073
1.0142311137
1.00862098664
0.997614825247
0.981190364221
0.0849064514509
0.0682595178688
0.0515594308229
0.0404610572316
0.0306279408358
0.0155966325448
1.02432865596
1.02209534663
1.018530688
1.01354792187
1.00725154478
0.998885213648
0.0861814190038
0.0678265839812
0.0536259398423
0.041794412053
0.0301160845065
0.0166581937575
1.02198111238
1.02141567242
1.01838458217
1.01355495287
1.00709491861
0.997643317426
0.0832689938347
0.0673242390645
0.0529991194326
0.0414421001226
0.0299066696653
0.0148209247626
1.02042064559
1.02084515038
1.01818585451
1.01368491135
1.00715282685
0.996366372634
0.984157296076
0.0853978694313
0.0676074658294
0.0514687304479
0.0404339663462
0.0302935465948
0.015539710647
1.02018495924
1.02082329254
1.01825999042
1.01370364141
1.00674490291
0.99300598962
0.960295218356
0.534687699531
0.072163020832
0.0909237802982
0.0683136094695
0.0508752684041
0.0399763816334
0.0301967477139
0.0156747947378
1.02109254536
1.02110765565
1.01830492743
1.01375686676
1.00733427858
0.996895453056
0.983810786958
0.084392041707
0.0673971859109
0.0521987242033
0.0410302107282
0.0301605065668
0.015022875481
1.02591393959
1.02202418028
1.0183522139
1.01316825399
1.00667007251
0.998973376293
0.0835955254305
0.0673878588175
0.0537479628942
0.0416278585472
0.0296091396401
0.0158149199214
1.02591453886
1.02202710874
1.04223830758
1.02221892705
1.02202464629
1.02057780244
1.02209089064
1.01954767928
1.01835234084
1.0158810156
1.01861422252
1.01511681131
1.01316818508
1.01012457554
1.01372592387
1.00909949015
1.00666985774
1.00304605163
1.00723272385
1.00137142955
0.998973130758
0.999162207542
0.0859684359326
0.0831542217033
0.0835963228009
0.0738568325612
0.0814635015288
0.0727979021223
0.0673884548888
0.0604446978075
0.0692392585693
0.0588694472259
0.0537482369197
0.0475463604925
0.0554019364024
0.0460429811032
0.0416277906376
0.0357564715795
0.0429802827456
0.0341025316313
0.0296088742365
0.0230130792076
0.0310179029516
0.0212430631491
0.0158147914936
0.0025662941148
0.0175223260125
0.00251342167664
0.990080996713
0.99689527561
0.986285574854
0.998029442352
0.992645456939
0.996959419838
0.987711434267
0.983810851426
0.98669714097
0.0881656044564
0.0871416870398
0.0837358172136
0.0840909088699
0.960295221356
0.663285051731
0.987580452385
0.959531362768
0.686971733239
0.534687625553
0.212126723833
0.555541134984
0.235147438325
0.0810392069881
0.0721630437404
0.0726187742768
0.0799701690005
0.124944008716
0.0778108337074
0.663285314569
0.984157215463
0.959531378944
0.686971710357
0.987580377804
0.212126648183
0.555541092083
0.235147309231
0.0726187885227
0.0810389205001
0.124944034243
0.0778108161471
0.0799700750278
0.986285676551
0.997643554894
0.99008115829
0.996959529736
0.987711498126
0.998029662858
0.992645829977
0.986697133364
0.0871413679036
0.0881649412165
0.0840907549017
0.083734660057
1.02202652473
1.04223752026
1.0222182709
1.02057751302
1.02209029611
1.01954737764
1.01588104096
1.01861398552
1.01511680304
1.01012474644
1.01372585982
1.00909946922
1.00304634194
1.00723273661
1.00137155124
0.999162352706
0.0859675964869
0.083152636729
0.073856088242
0.0814622382025
0.072797107044
0.0604442693803
0.0692384679096
0.058868953192
0.0475462566427
0.0554014340864
0.0460428490901
0.0357566743659
0.0429801897528
0.0341027470063
0.0230133206678
0.0310181012511
0.0212432201553
0.00256628979887
0.0175224000241
0.00251341991343
1.0422896333
1.02232381868
1.0255257175
1.02257406723
1.02228430385
1.01980011896
1.02285919188
1.02035694999
1.01884345574
1.01523427586
1.01926099624
1.01551315847
1.01378831636
1.00893190983
1.01410452436
1.00951966893
1.00698398695
1.00102353956
1.00758524753
1.00149845939
0.998779956445
0.998867028737
0.0837728118486
0.0869382460711
0.0815636223195
0.0724329333298
0.0840846794123
0.0728575945716
0.0688694812005
0.0585175281813
0.0688988971861
0.0583478258199
0.0550764382644
0.0457818110049
0.0547734403846
0.0457917354201
0.0427388450457
0.0338164451561
0.0427819573983
0.0343111068812
0.0306684651665
0.02050093561
0.0311550046113
0.0208233296857
0.0167072026598
0.00236353136085
0.016390883723
0.00234065380262
0.992291255226
0.996700957504
0.987404876197
0.997361727206
0.989807005347
0.996664106191
0.986015222109
0.986365985353
0.983504997847
0.0842204402669
0.0839353880626
0.0881127809217
0.0855699660796
0.959282705214
0.686716292853
0.983892682979
0.960067417212
0.663013285339
0.555392062339
0.235332407336
0.534527209717
0.212179545989
0.079702231415
0.12527259387
0.0784889216646
0.0755199085505
0.0722571855522
0.0732701801252
0.686716286031
0.987284023508
0.960067593328
0.663013365761
0.98389338434
0.235332424484
0.53452718395
0.212179646289
0.078489029318
0.0797026379516
0.0722572285935
0.0732702290751
0.0755201906319
0.987405861646
0.997710332418
0.992292869534
0.996665174163
0.986016179972
0.997363108526
0.989808580599
0.983505912854
0.083936096004
0.0842215843135
0.0855705600029
0.0881137665955
1.02232423172
1.02552601515
1.02257440874
1.01980074401
1.02285955029
1.02035739524
1.01523524256
1.01926151962
1.01551387625
1.00893332382
1.01410532125
1.00952084943
1.00102521968
1.00758650593
1.00149998071
0.998868640939
0.0837738296646
0.0869394334684
0.072434199854
0.084085834097
0.0728585895102
0.0585187536411
0.0688998163805
0.0583487136316
0.0457830237338
0.054774236202
0.0457925975268
0.0338175727941
0.0427828352898
0.034312127336
0.0205021090387
0.0311560508563
0.0208244521999
0.00236374210507
0.0163919027887
0.00234082732564
1.02510040477
1.02277554455
1.02444660033
1.02286152942
0.0165543017612
0.0023137861753
0.0166307321768
0.00226759304043
1.02277588314
1.02444674929
1.02286170662
0.00231392615916
0.0166315049594
0.00226768873145
1.0244049546
1.02284763583
1.02432401576
1.02273218177
0.0166948913295
0.00226669665998
0.0166991361946
0.00226592451156
1.02284774378
1.02432373392
1.02273209969
0.00226676204738
0.0166995542714
0.00226599577734
1.02432900987
1.02267373172
1.02524544246
1.02239409475
0.0166578049959
0.00227176140212
0.0168933376442
0.0024797889006
1.0226735379
1.02524491114
1.02239362213
0.00227180710636
0.0168935341599
0.00247980846336
1.02097242335
1.02109295126
1.02057124198
1.03766245936
1.02176398449
1.03561703151
1.02139998744
1.02040478916
1.02110795989
1.02016638742
1.02166454919
1.02023356179
1.02143097594
1.02006997612
1.01607892103
1.01830506636
1.01613085079
1.01821624449
1.0159244539
1.01813134515
1.01595852636
1.01064246377
1.01375686269
1.01091709486
1.0133143161
1.01026825929
1.01344874987
1.01040986948
1.00277068226
1.00733415901
1.00269501148
1.00665401117
1.00248489622
1.00663020375
1.00208110202
0.0754922194072
0.0843923936482
0.0766618750368
0.0812971069743
0.0748023844648
0.0823433617638
0.0752075077036
0.059750109216
0.0673975423966
0.0592044305371
0.0673166277072
0.060030589093
0.0670474886664
0.0594455823533
0.0470326847308
0.0521989400346
0.0463719251651
0.0533344254346
0.0472409339203
0.0527416776623
0.0468214170682
0.0358905735905
0.0410302471203
0.0358241357977
0.0414523547078
0.0356944645395
0.0412518534073
0.0357084062914
0.0230567723129
0.0301603741591
0.0234159599706
0.0296450278776
0.0230737877773
0.0297937288657
0.023200563878
0.00498461531494
0.015022769346
0.00505130647235
0.0160334834805
0.00276001135137
0.0160743835199
0.00271120024827
1.02023330732
1.02018505718
1.02014167242
1.03534013741
1.0210145921
1.03512458804
1.02091630274
0.987809301617
0.99300596872
0.979069071996
0.995383606717
0.987688821217
0.991399014643
0.978298580034
0.00517666468717
0.0156747841075
0.00520872233221
0.016131058347
0.00266201300728
0.0160925397087
0.00253604177032
1.02014157293
1.02042040087
1.02023308499
1.03512451643
1.02091618193
1.03533983961
1.02101431534
0.979069125962
0.996366534317
0.987809390156
0.99139904013
0.978298622638
0.995383697728
0.987688860671
0.00520872321523
0.0155397894343
0.00517670607553
0.0160925718002
0.00253602608883
0.0161311348331
0.00266206794887
1.02057085536
1.02198062047
1.02097194415
1.03561660828
1.02139955454
1.0376617463
1.02176343759
1.02016617329
1.02141527594
1.02040453205
1.02143061361
1.0200696925
1.0216641087
1.02023324944
1.01613083753
1.01838445417
1.01607888362
1.01813116518
1.01595842213
1.01821604343
1.01592436689
1.01091720731
1.01355500359
1.01064259382
1.01344868907
1.0104099285
1.01331426214
1.01026828781
1.0026952105
1.00709512168
1.00277093583
1.0066302823
1.00208123562
1.00665407183
1.00248502722
0.0766615223576
0.0832683562524
0.0754916202112
0.082342904366
0.0752070647194
0.0812963311009
0.0748016853028
0.0592041916262
0.0673237468444
0.059749774726
0.0670470627166
0.0594452743534
0.0673161175786
0.0600301757363
0.0463718425115
0.0529988678076
0.0470326113943
0.0527413801813
0.0468212619022
0.0533340896457
0.0472407668135
0.0358242322064
0.0414421175252
0.0358907517683
0.0412517784925
0.0357084926533
0.0414523175357
0.0356945799704
0.0234161329834
0.0299068873229
0.0230570297075
0.0297938488396
0.0232007485334
0.0296452083074
0.0230740049456
0.00505133829275
0.0148210647423
0.00498465008933
0.0160744801384
0.00271117387282
0.0160335684469
0.00275999704166
1.02709317068
1.0311073321
1.05332635737
1.02708886147
1.04225058176
1.02450578731
1.03079455581
1.02333298818
1.02283867965
1.02293488687
1.02325551907
1.02243569971
1.02343029257
1.02419041027
1.02137745296
1.02278423956
1.02226782096
1.02110760163
1.02229161671
1.02169354696
1.0213554931
1.02075166964
1.01988298522
1.01968710119
1.02049808782
1.01973118774
1.02097474069
1.02061409524
1.01759544005
1.01884726542
1.01868679347
1.01752463196
1.01874515113
1.01770015763
1.01758799084
1.01639741023
1.01524985932
1.01510832042
1.01635419267
1.01511976141
1.01648448624
1.016370521
1.01230442221
1.01385340973
1.01369589659
1.01231903715
1.01373558426
1.0124825724
1.01226376593
1.01074728956
1.00932548153
1.00907013611
1.01069983273
1.00913980863
1.01087862568
1.0106754098
1.00564359184
1.00747858424
1.00732140721
1.0054473813
1.00741476975
1.00574967992
1.00555531367
1.00380984614
1.00181056034
1.00168779578
1.00333677718
1.00182719556
1.00370659256
1.00364836433
0.997724348864
0.999565981043
0.99960667655
0.997467256991
0.999661515173
0.997666712919
0.997881187506
0.996599947355
0.996583821572
0.996263864221
0.996900477243
0.0844309570549
0.0838761712294
0.0823786624546
0.0849410974251
0.082724595378
0.0857695844288
0.0839030053246
0.0778530659598
0.0817233371121
0.0805380053062
0.0788741341858
0.0806933878136
0.0786977829326
0.0779727406538
0.0750942936839
0.0724432420823
0.072150784239
0.0759971680356
0.0720223807811
0.0755644007679
0.0752770388
0.065606553535
0.0688499779424
0.068949874144
0.0658587329989
0.0688526793954
0.0656008487665
0.0656378373818
0.0621795603922
0.0586865694206
0.0588907834502
0.0622167961456
0.0588653790279
0.0619116136129
0.0622456238032
0.0523001987032
0.0551734305886
0.0555294892256
0.0522376711112
0.0554738056422
0.0521297614844
0.0523113855698
0.0491056030605
0.0460212244626
0.0460670640151
0.0490280716082
0.0460979589339
0.0488884034012
0.049123970549
0.0400928960784
0.0429300770203
0.0429945068668
0.0400722413725
0.0430255863621
0.0401347526121
0.0400130996964
0.0370610541991
0.0342227256003
0.0339694783603
0.0370546565749
0.0340833542687
0.0370808502958
0.0369822302445
0.0278404728285
0.0310597772592
0.0308914611132
0.0279109275687
0.0309797906538
0.0280123404036
0.0277522010745
0.0245907946082
0.0213162431295
0.0210896515563
0.024667483897
0.0211567943908
0.0246491475583
0.0245475479729
0.0130062436855
0.0175430855817
0.0172576628006
0.0130726116549
0.0173930433012
0.0132904023488
0.0127912485414
0.00796368257609
0.00259152545853
0.00245876397119
0.00798012347837
0.00252228823509
0.00797020101352
0.00768689908812
0.992865549426
0.991715477881
0.995977810294
0.991634592896
0.99480003926
0.99084944642
0.994506097248
0.986033599583
0.985484577446
0.983910392356
0.0883732491673
0.0850081524573
0.0862059449572
0.0846045835998
0.0872557440446
0.0860475210137
0.0874744099083
0.996555050914
0.984852082989
0.986946245269
0.980363095653
0.987955475259
0.981247008209
0.987489064011
0.955959828326
0.6776568917
0.863599751013
0.850724857056
0.963923030045
0.548501531528
0.448374882259
0.445100823331
0.228451676056
0.34167381948
0.338530430565
0.028134487258
0.0631301791758
0.0633239343048
0.0360531555536
-0.028049639871
0.103092995527
0.055276954492
0.0492153278094
-0.00741066371237
0.955959886975
0.677657176872
0.863599747001
0.850724910874
0.963922966859
0.996554944217
0.984851961044
0.980363060081
0.986946120791
0.98124695024
0.987955330493
0.987488995105
0.548501499001
0.448374805394
0.445100605665
0.228451561631
0.341673767688
0.338530483553
-0.0280496358451
0.103092680169
0.055276964927
0.049215224064
-0.00741084819555
0.0281345876163
0.0631303161581
0.0633244180148
0.036052927871
0.992865784762
0.991715792943
0.991634828858
0.99597815697
0.990849619399
0.994800349979
0.994506460184
0.986033510097
0.98548452323
0.983910341548
0.0883727148576
0.0850071690874
0.084603858309
0.0862046658092
0.0860470186669
0.087254774646
0.0874740209682
1.02709240405
1.03110650595
1.02708817505
1.05332551108
1.02450504899
1.04224960161
1.030793915
1.02333233583
1.02283809013
1.02325488851
1.02293421294
1.02342963049
1.02243502791
1.02418984325
1.02137690228
1.0227836877
1.02110708458
1.02226712467
1.02169298521
1.02229094467
1.02135487156
1.02075125798
1.01988269041
1.02049765632
1.01968680253
1.02097434783
1.0197308895
1.0206136414
1.01759538789
1.01884704025
1.01752449013
1.01868660594
1.01770001666
1.01874498274
1.01758795319
1.01639752412
1.01524987835
1.01635415463
1.01510843164
1.01648448939
1.0151198712
1.01637063386
1.01230444239
1.01385343767
1.01231897267
1.01369597325
1.01248259987
1.01373570797
1.01226370928
1.01074737118
1.00932556714
1.0106998003
1.00907012836
1.01087869291
1.00913983357
1.01067537009
1.00564373014
1.00747867686
1.00544742995
1.00732145353
1.00574979411
1.00741490992
1.0055553935
1.00381010585
1.00181070873
1.0033368789
1.00168799254
1.00370681979
1.00182748764
1.00364856877
0.997724528414
0.999566151904
0.997467291122
0.999606749795
0.997666879471
0.999661711175
0.997881024073
0.996600043035
0.996583932096
0.996264084084
0.996900227476
0.084429172833
0.0838747182712
0.0849393254848
0.0823768777353
0.0857675841426
0.0827226690337
0.0839016889322
0.0778520046198
0.0817224039476
0.0788731955499
0.0805364208803
0.0786967636453
0.0806920942685
0.077971815641
0.0750933736392
0.0724425128982
0.0759961746764
0.0721498809428
0.0755635019664
0.0720216292151
0.0752760185208
0.0656059190751
0.0688492748264
0.065858068321
0.0689490200959
0.0656002594403
0.0688519331848
0.065637070839
0.0621790006392
0.0586860931095
0.0622161440665
0.0588902357037
0.0619110363993
0.0588648964778
0.0622449112009
0.0522999021208
0.0551729710724
0.0522372964279
0.0555290223301
0.0521294444594
0.0554734322402
0.052311002913
0.0491055027279
0.0460211258487
0.0490278187845
0.0460669469052
0.0488882360731
0.0460978735306
0.0491237246184
0.0400929820765
0.042930054441
0.0400722854663
0.0429945281861
0.0401348292631
0.0430256224481
0.0400131483127
0.0370612926784
0.0342229737898
0.0370547908208
0.0339697138606
0.0370810529935
0.0340835800242
0.0369824456344
0.0278407242761
0.0310600433296
0.0279111763819
0.0308917238095
0.0280126429409
0.0309800942664
0.0277524760254
0.0245910290349
0.0213164338182
0.0246676619816
0.0210897760308
0.0246493487402
0.0211570108033
0.0245477314008
0.0130062822469
0.0175432252589
0.0130726705396
0.0172577139354
0.0132904842047
0.0173931496285
0.01279127557
0.00796368137813
0.00259151351661
0.00798012655212
0.00245876246882
0.00797018168951
0.00252227141733
0.00768691463827
1.02207078273
1.03575399712
1.02162935019
1.02202365782
1.02129540347
1.02124347951
1.0207694334
1.0205088766
1.02163653622
1.02026045261
1.02171752774
1.02065199327
1.02128619311
1.02032299483
1.01607627906
1.0182921125
1.01606857336
1.01858368487
1.01623337188
1.01843450832
1.01622266622
1.01021233916
1.01348849274
1.01036002669
1.01364880215
1.0106436586
1.01379517812
1.01088208573
1.0022081751
1.00648952655
1.00186646649
1.00697106864
1.00249356429
1.00721852475
1.00250952999
0.0741616028118
0.0816594496408
0.0743031310289
0.0829863376044
0.0751782328712
0.0838604894478
0.0758283835903
0.0595719935684
0.0662979094809
0.058927335623
0.066918423033
0.0593725008255
0.0667305683923
0.0587727001524
0.0469814750993
0.0523986131348
0.0465921014145
0.0526803964041
0.0467922981094
0.0519192117653
0.0461865445415
0.0355041348548
0.0410873659349
0.0355619731645
0.0412725591096
0.0357601993076
0.0408998820988
0.0357121832039
0.0227074730162
0.0296268553643
0.0230046488668
0.0297445538552
0.0227666092844
0.0300322602326
0.0232598625364
0.00264789031334
0.01588724997
0.00267643433628
0.0143618541784
0.00481064183568
0.0148759186857
0.00499906553405
1.02113135031
1.03517283201
1.02098274471
1.02049941408
1.02033349693
1.02022437128
1.02019778752
1.0199879842
1.02120125968
1.02001416157
1.02093807924
1.01996195053
1.02087667972
1.01997935774
1.0160108594
1.01814919615
1.01611626617
1.018262503
1.01608165532
1.01831927833
1.01615711648
1.01031592141
1.01358836515
1.01030736699
1.01370429609
1.01067437355
1.01372780147
1.01055814669
1.00114430991
1.00583604706
0.999564012022
1.00707568765
1.00212124073
1.006699909
1.00073728042
0.987438188584
0.99122356897
0.978071230107
0.996193617694
0.987586520267
0.992864941975
0.978871116184
0.986644303106
0.980092328294
0.987215278154
0.996287269322
0.984561994463
0.987658829451
0.980982917494
0.0646309784052
0.0380314894449
0.029789784357
0.0635212594665
0.0749228381002
0.090183069326
0.0784181251071
0.0836387788042
0.0767460751946
0.0916895742778
0.080906367136
0.0581853938414
0.0665206415039
0.0577576757609
0.0669097736974
0.0583846066164
0.0680342399117
0.058157413449
0.0460811998144
0.0511284424998
0.0456262573707
0.0512151958694
0.0454751012002
0.0506689879497
0.044939390772
0.035515985215
0.0405103071931
0.0353982710719
0.0403244968589
0.0353828499903
0.0398781337773
0.0351112268354
0.0232532342605
0.029802621504
0.0233026448945
0.030210228455
0.0237635948076
0.0301412641752
0.0239102438343
0.00263928742317
0.0160806212175
0.00253080904738
0.0155042959001
0.00517190720814
0.0156756671562
0.00521405311167
1.02098282124
1.03544632576
1.02113155219
1.02022443895
1.02019784768
1.02049958666
1.02033366679
1.02001427155
1.02126411169
1.01998819214
1.02087673461
1.01997940688
1.02093825303
1.01996213399
1.01611641283
1.01811000527
1.01601120015
1.01831936211
1.01615723279
1.01826274328
1.01608192904
1.01030759073
1.01350009385
1.01031641629
1.01372793398
1.01055830919
1.0137046607
1.01067479568
0.999564263423
1.00624139218
1.00114496811
1.00670008343
1.00073750244
1.00707620712
1.00212182695
0.978071422426
0.995179002193
0.987438862602
0.992865162186
0.97887134295
0.996194277546
0.987587170583
0.448350928454
0.548343174745
0.445075465272
0.0556472853931
-0.00647705461023
-0.0272017690899
0.103483062317
0.0498538478042
0.078418310811
0.0827874664486
0.0749233223797
0.0916896633128
0.0809064524059
0.0836391195828
0.0767464316365
0.0577578552648
0.0659202922251
0.0581857660731
0.0680343432227
0.0581575486815
0.0669101320143
0.0583848774823
0.0456264099213
0.0516891876447
0.0460814950721
0.0506690953743
0.0449395049027
0.0512154540816
0.0454753373581
0.0353984442484
0.0408056295859
0.0355162986249
0.0398782471695
0.0351113360859
0.0403247698615
0.0353831567497
0.0233027971922
0.0297995843866
0.0232535562218
0.0301413677933
0.0239103468795
0.0302105333637
0.0237638877904
0.00253080217689
0.0160699975412
0.00263934517614
0.0156757334557
0.00521410859395
0.0155045232088
0.00517202447602
1.02162960585
1.03774845525
1.0220711298
1.02124369908
1.0207696604
1.02202392337
1.0212956511
1.02026080353
1.02196486216
1.02050930799
1.02128642442
1.0203232924
1.02171784173
1.02065237346
1.01606915021
1.01843957698
1.01607698741
1.01843490421
1.016223157
1.01858419369
1.01623401934
1.01036083948
1.01337536396
1.01021337592
1.01379579037
1.01088284486
1.01364961676
1.01064464501
1.00186750829
1.00647593394
1.00220951472
1.00721939706
1.00251052356
1.00697224336
1.00249484053
0.985140890471
0.985704699462
0.983576994058
0.0743039272459
0.0808395091273
0.074162597316
0.0838611373322
0.0758290819796
0.0829872630788
0.0751791068716
0.0589280918568
0.0667418318518
0.0595728925187
0.0667312054713
0.0587732692076
0.0669192517506
0.0593732922372
0.046592729886
0.0529858086743
0.0469823222451
0.0519197405907
0.0461870676084
0.0526811727914
0.0467930700753
0.0355626315384
0.0412530961145
0.0355050337418
0.0409004616657
0.0357128153125
0.041273401728
0.0357610807751
0.0230052446291
0.0293963289995
0.0227083715407
0.0300328999013
0.0232604868417
0.0297454915362
0.0227675105998
0.0026764883526
0.0155973879836
0.00264807188761
0.0148763793193
0.00499926472245
0.0143625957541
0.00481093181655
1.02730402614
1.05331034566
1.0309756257
1.03094972676
1.04196124628
1.02685835489
1.02435020582
1.02136259057
1.02250095346
1.02169882885
1.02190163608
1.0229653216
1.0219475134
1.02258838229
1.0177299017
1.01895176914
1.01781618278
1.01790503847
1.01906222876
1.01789059822
1.01906550506
1.01231305404
1.013749983
1.01223297998
1.01233297699
1.01394870013
1.01250004973
1.01382950635
1.00512687293
1.0069899609
1.00512678835
1.00531789629
1.00731365956
1.00549460936
1.0071616465
0.997089586052
0.99911421562
0.997436483607
0.997296876228
0.999163025349
0.997282461366
0.999142736547
0.0786359277962
0.0809399467794
0.0780872405933
0.0782028949757
0.0819008368551
0.078657848269
0.0812760845377
0.0654920185592
0.0688025823037
0.0654261310717
0.0653025216097
0.0685710049993
0.0651928894755
0.0686817851948
0.0519331408175
0.0552354223377
0.052019590481
0.051959197906
0.0548872477563
0.0517818744626
0.0551541504646
0.0398310248448
0.0427391271101
0.039748255081
0.0397830300318
0.0427239061254
0.0398597137724
0.0427427389153
0.0274687959572
0.0305007097476
0.0272452451991
0.0273550915875
0.0307928161112
0.0275825085195
0.0306089940753
0.0123683113042
0.0161800693338
0.0117487100827
0.0115673317219
0.0165652147578
0.0121507233367
0.0161007536766
1.02222619822
1.02098746554
1.02231548771
1.02107634474
1.01865140988
1.01616061948
1.01868447943
1.01622640828
1.01347348124
1.01046743792
1.01361533519
1.01071623758
1.0069458062
1.00314195077
1.0072278322
1.0034135723
0.998796127724
0.998807329783
0.0880563496655
0.0892933780849
0.0851532212219
0.0745368858939
0.0866594252011
0.0750315397103
0.06751012548
0.0602914587419
0.0677535518193
0.0603831687436
0.0534955377998
0.0473882168265
0.0535040716335
0.0474272765568
0.0416207201895
0.0359166792679
0.0417236886588
0.0361048957153
0.0298780710127
0.0235915950155
0.0300929058805
0.0238164990947
1.02114823996
1.02028570199
1.02045359513
1.02078417186
1.02110590706
1.0198251939
1.02035036118
1.02080826694
1.0211829406
1.02030748432
1.02188056444
1.02092705749
1.0212298393
1.02044353135
1.01637292978
1.01850151809
1.01634413047
1.01871741434
1.01646931979
1.01859974839
1.01648008853
1.01117755403
1.0140617694
1.01145395504
1.01415320402
1.01156029268
1.01426141012
1.01183144951
1.00317171398
1.00807445721
1.00373630197
1.00815115636
1.00360524924
1.00860189508
1.00440664248
0.98926273095
0.997186101387
0.985307707344
0.997408877198
0.988400632228
0.997524839469
0.984187581831
0.982636646816
0.981042399555
0.0905422975865
0.0856895310028
0.0907328401684
0.085130483358
0.0761485824264
0.0847176927582
0.0779344997352
0.085746056114
0.076849413392
0.0851145382842
0.0788262749029
0.0593252311189
0.0676234038866
0.0593449031358
0.0674214536961
0.059326865489
0.0680902311232
0.0595249463864
0.046664957797
0.0516686875989
0.0459462731773
0.0522804958644
0.0465420949718
0.0514393192971
0.0456998056038
0.0360254774289
0.0406357626592
0.0357335523265
0.0412959648433
0.0361894565293
0.0404025260294
0.0356869546496
0.0231776203794
0.0304612396989
0.023840416077
0.0304295135817
0.0234281210307
0.0305917870749
0.0241357350597
0.00481532552134
0.0153401658951
0.00520112241023
0.0144645124453
0.0048235737912
0.0155623365865
0.00527991729401
1.01986939038
1.01920009686
1.01982505305
1.01898951811
1.01989013949
1.01874670554
1.01999213568
0.959509031141
0.658192654554
0.982869509334
0.958808955658
0.650136538616
0.528743829734
0.205387141548
0.518187999627
0.193660028755
0.0707320246539
0.0635356950337
0.0661101374338
0.0690945491328
0.0517136186026
0.0629877151631
0.00570939434314
0.0175557099234
0.00583855981459
0.0174390405421
0.00583454061412
0.0175057831503
0.00597368625843
1.01982510081
1.01946235514
1.01986951494
1.0187467168
1.0199921511
1.01898959111
1.0198901973
0.658192718682
0.983772420383
0.958809048835
0.650136563575
0.982869859918
0.205387330044
0.518187912241
0.193660028988
0.066110242117
0.0707322112086
0.0517136709225
0.0629878036124
0.0690946533661
0.00583859997228
0.0173513471055
0.00570951366554
0.0175058272233
0.00597372349125
0.0174392231755
0.00583464330083
1.02045374455
1.02119701873
1.02114845303
1.01982527413
1.02035042026
1.02078427263
1.02110603206
1.02030770512
1.02177589865
1.02080861957
1.02122992844
1.02044368675
1.02188074589
1.02092732991
1.01634452221
1.01867633603
1.01637353093
1.01859997377
1.01648042404
1.01871781406
1.01646981577
1.01145456279
1.01395364239
1.011178464
1.01426180849
1.01183197263
1.01415386233
1.01156112106
1.00373713309
1.00768475698
1.00317288603
1.00860248093
1.00440734427
1.00815208803
1.00360630472
0.985308610055
0.997322159526
0.989264139047
0.997525646036
0.984188205982
0.997409983735
0.988401780659
0.981042859986
0.0856900805745
0.0905430588761
0.0851308252245
0.0907333670717
0.0779349168523
0.0848400818564
0.0761492267309
0.085114845659
0.0788265048492
0.0857465336371
0.0768497681739
0.0593452699171
0.0671617493226
0.0593258023034
0.0680904163083
0.0595251776676
0.0674217708601
0.0593272096183
0.0459466780764
0.0524525943711