/*--------------------------------*- C++ -*----------------------------------*\
  =========                 |
  \\      /  F ield         | OpenFOAM: The Open Source CFD Toolbox
   \\    /   O peration     | Website:  https://openfoam.org
    \\  /    A nd           | Version:  7
     \\/     M anipulation  |
\*---------------------------------------------------------------------------*/
FoamFile
{
    version     2.0;
    format      ascii;
    class       surfaceScalarField;
    location    "3";
    object      phi;
}
// * * * * * * * * * * * * * * * * * * * * * * * * * * * * * * * * * * * * * //

dimensions      [0 3 -1 0 0 0 0];

internalField   nonuniform List<scalar> 
14871
(
-1.80201150785e-13
1.0124166908e-12
1.21502334209e-13
2.96282129691e-13
-7.39876633786e-14
-3.2434482386e-12
2.57821141493e-12
4.92032071732e-13
4.94088105151e-13
-5.07677598369e-14
-1.16653049196e-13
-7.94748093388e-14
-1.10746076024e-14
-2.18995956016e-12
1.98310550209e-12
1.54758089608e-13
9.92082795106e-14
-6.74541104506e-15
-1.72172837203e-14
-1.20750009818e-14
-1.04124991492e-14
-1.86911057525e-12
1.79489734103e-12
1.48116635843e-13
-2.6118214711e-14
-7.59579064801e-15
-1.58208689361e-14
-1.39560235906e-14
-2.65551185262e-14
-1.71759387715e-12
1.6001300122e-12
3.86260502484e-13
-1.40615182614e-13
-2.5235537641e-14
-3.8043623149e-14
-3.83472180135e-14
-6.89241807201e-14
1.11349310174e-12
-1.85728672408e-13
-1.35459177116e-12
-6.71325987061e-14
-8.99932772009e-14
-9.08883431962e-14
1.33885175563e-13
1.70783976134e-13
2.52565850571e-13
1.86530755655e-13
2.51680317622e-14
-2.43995601919e-15
6.78629665964e-13
-7.92764220294e-13
-5.09188761265e-14
3.69118959868e-14
3.16573501789e-14
4.3638044131e-14
4.71689696038e-16
1.15136553075e-14
1.8132232784e-14
2.66741604952e-14
-1.1914748691e-12
1.52886348883e-12
-4.48326086916e-13
-3.09925780172e-14
2.9858826343e-14
4.17926664053e-14
4.36044021857e-14
3.02273911519e-15
-1.72148850149e-12
1.82443081984e-12
-1.0986535244e-13
-2.49863526505e-14
7.17074051449e-15
9.54074728762e-15
1.21751506846e-14
-2.34657487615e-15
-1.88255436701e-12
1.91972901857e-12
-1.23945379499e-14
-2.39634082607e-14
2.08327711401e-15
-1.89116674968e-15
1.33776990616e-15
-8.3864461445e-16
-1.95517307851e-12
2.01084769763e-12
-2.38359623442e-14
-3.46177008868e-14
4.4096131969e-15
-2.88938837003e-15
2.09748982588e-15
2.74420838181e-14
-2.03625237055e-12
-8.06138026271e-14
2.77550466966e-13
4.2269491828e-14
2.864188777e-14
2.97525718185e-14
3.33457386323e-13
3.50924430548e-13
4.88018251757e-13
5.38810346094e-13
-4.13430514307e-14
2.78414506591e-14
9.77432509e-13
2.86069106087e-13
-4.31400457287e-13
-3.33132871165e-12
2.94349888003e-12
2.33997784267e-13
5.85232504622e-13
-1.93512219068e-13
-2.71492990119e-12
2.61141093679e-12
1.13985142771e-13
1.83046040691e-13
-2.01102028649e-13
-2.59340762597e-12
2.65391830636e-12
1.32641644518e-13
7.94970373148e-15
-5.46428002189e-13
-2.80295154867e-12
3.13348304832e-12
4.34225516537e-13
-2.18329013997e-13
-1.84509200791e-12
-3.62122795671e-12
4.30021567606e-12
1.80310906419e-12
-6.37004775608e-13
-3.29734580071e-13
-5.7480906873e-13
2.5362660167e-13
7.21940627146e-13
-7.102325631e-14
-1.06828586141e-13
1.83094761421e-12
2.52625385185e-12
-3.2392456168e-12
4.59889460886e-13
-4.50844143235e-13
-1.97927438729e-13
-8.22245242407e-13
7.5015147224e-13
-2.60229123521e-12
2.56740601368e-12
-7.59159786166e-13
4.38935354802e-14
1.6484064316e-13
-2.53320991294e-12
2.51111586745e-12
-1.25883075482e-13
-1.68635221926e-14
2.18477083388e-14
-2.4990290192e-12
2.49342067266e-12
-9.73099977022e-15
-6.50836203834e-15
3.76622530599e-14
-2.48616657687e-12
2.53747257077e-12
-1.96815840049e-14
-6.92866629522e-14
7.21823980288e-14
-2.51756519566e-12
-4.09722214467e-14
2.64157619725e-13
4.20766405988e-13
4.27615066695e-13
6.94065725052e-13
6.79750579915e-13
5.83859155489e-19
-8.03591074739e-15
9.7139610873e-13
2.8663921816e-13
6.82038660365e-18
-3.27735945004e-12
2.93600559609e-12
-2.34001876447e-13
5.75348909989e-13
3.81126378215e-18
-2.76164606796e-12
2.70716913141e-12
-1.13995636774e-13
1.6846876206e-13
7.33008990384e-18
-2.74741497168e-12
2.89400573695e-12
-1.32654927341e-13
-1.39431680311e-14
1.31354992392e-17
-3.21707487383e-12
3.95932048451e-12
-4.34240074718e-13
-3.08018671462e-13
1.25325020526e-17
-5.2764980842e-12
7.72850722809e-12
-1.80313551514e-12
-6.48886161238e-13
1.35025419005e-17
-1.14018647718e-12
-1.1871479911e-11
5.71519234432e-12
1.97557651133e-12
2.59040833612e-12
8.39824724175e-12
-1.2357375949e-12
-1.19147368763e-12
-1.50910968354e-12
-1.73145061905e-12
6.20815937218e-19
-7.61309804088e-12
7.48985374109e-12
1.23243678964e-13
2.64013362511e-19
-7.09871978971e-12
6.63218264235e-12
4.66536883349e-13
-1.05063088705e-11
9.41410465375e-18
6.584835475e-12
3.2392246314e-12
6.82239349974e-13
1.25179212024e-17
-4.37245988741e-12
3.37182688972e-12
7.59144429388e-13
2.4147605042e-13
1.53082960127e-17
-2.9174358978e-12
2.72839482673e-12
1.25868830871e-13
6.31569319071e-14
1.12694126854e-17
-2.64048067187e-12
2.60488787642e-12
9.7210240231e-15
2.58605020064e-14
2.30477592419e-18
-2.57982080868e-12
2.6352124549e-12
1.96702343231e-14
-7.50641853237e-14
3.67796844639e-18
-2.60817776406e-12
4.09707428212e-14
2.71823824117e-13
4.38381759119e-13
4.36947346922e-13
7.08497953155e-13
7.11552837712e-13
4.13432028523e-14
-6.04696449364e-14
9.82969270191e-13
2.86157181558e-13
4.31410348447e-13
-3.38777210458e-12
2.88830652114e-12
-4.92031161684e-13
5.60086396662e-13
1.93519012699e-13
-2.56829205942e-12
2.39238915561e-12
-1.54763765994e-13
1.37147657106e-13
2.01111538324e-13
-2.30122266581e-12
2.26362737621e-12
-1.48123668849e-13
-1.53925798727e-14
5.46448011143e-13
-2.25456045822e-12
2.27674527242e-12
-3.86269091639e-13
-1.82363733696e-13
-1.11351477236e-12
-3.52233127009e-13
1.84512104625e-12
-2.24004797031e-12
4.19270603844e-13
3.25658568816e-13
4.73328533004e-13
6.42417253948e-13
3.29737316688e-13
-1.73966719288e-13
-1.36224991228e-13
-1.95456061669e-14
-1.21141712501e-14
-1.8309184393e-12
1.00925819676e-12
7.92746839127e-13
8.93127742127e-14
-1.87179407974e-15
-4.14800669087e-14
-4.93369512205e-15
-7.50116050783e-13
-1.59179001844e-12
1.92739285834e-12
4.48318823345e-13
-3.38056124562e-14
-1.6481111245e-13
-2.10045916188e-12
2.1896953128e-12
1.09858025644e-13
-3.42830641067e-14
-2.18288084494e-14
-2.23653650541e-12
2.26137136903e-12
1.23828637813e-14
-1.53889189528e-14
-3.76481921909e-14
-2.27797103609e-12
2.32197786018e-12
2.38189251188e-14
-3.01775570155e-14
-7.21645989153e-14
-2.31341436702e-12
8.05955896155e-14
2.81997045411e-13
3.97537014148e-13
3.83301019014e-13
6.05225300861e-13
6.36923424629e-13
1.80202074572e-13
1.00326090443e-12
-2.21692697941e-13
2.88229739545e-13
-3.81352944799e-13
7.39882072697e-14
2.99242064474e-13
-3.09940050776e-14
3.91169092223e-14
-1.8939832697e-13
1.10757827221e-14
1.7580091776e-13
-3.11218054246e-15
5.63420398848e-15
-1.56598332626e-13
1.04134663311e-14
1.49215780935e-13
-2.42028525699e-15
-6.10207511256e-16
-1.3323123888e-13
2.65575663261e-14
1.20242978048e-13
-7.57260154168e-15
-5.99621024447e-15
6.89280129675e-14
-8.15197355875e-14
5.34233206702e-14
-2.13662137662e-14
-1.94648705054e-14
1.82105805494e-14
-2.51663517822e-14
-1.44985651763e-14
1.12987336377e-14
1.01562591737e-14
-5.54940027542e-14
-2.66686613496e-14
7.26760233539e-14
1.06420365603e-14
-1.15457762214e-15
-1.2308431781e-13
-3.01676653532e-15
1.27814074601e-13
1.5940006625e-15
-3.30630218062e-15
-1.4469222388e-13
2.34914621551e-15
1.43602847369e-13
-1.71988279348e-16
-1.08715757198e-15
-1.45775876307e-13
8.42171820387e-16
1.43522411773e-13
9.61317305843e-16
4.50687648553e-16
-1.49798443402e-13
-2.74363932332e-14
1.62998484847e-13
1.22273976459e-14
2.00994311205e-15
-3.16255227675e-13
-9.66200313569e-13
5.5445566573e-12
1.24664139499e-12
5.77269035014e-13
-3.14946445819e-13
-3.87923286478e-13
-3.8314189204e-13
-7.67517008812e-13
-4.93820651249e-13
-5.58228172059e-12
5.18523054061e-12
1.01342768663e-12
6.44961153392e-13
-2.07249506553e-13
-1.40307958637e-13
-4.83159953922e-12
4.56202377812e-12
4.10788448017e-13
2.06344778273e-13
2.73178566215e-14
-1.23565524346e-13
-4.34357523221e-12
4.0947513297e-12
3.64903274805e-13
-1.98317045708e-14
2.50854378476e-13
-3.06056969948e-13
-3.75112804565e-12
3.28594323851e-12
7.40816699007e-13
-2.20429300402e-13
3.96192701393e-13
-1.51567390016e-13
-2.66824870574e-12
1.77851746212e-12
-3.78318778077e-13
-1.37291934781e-13
-1.52694594031e-13
-1.36468076553e-13
3.07500333227e-13
4.17934249577e-13
4.17399420577e-13
3.07045267158e-13
-8.12631706921e-14
5.65153385993e-14
-3.15284140987e-13
1.03277732376e-12
-1.23958611896e-12
2.55306622459e-13
1.22765717296e-13
5.05238142517e-14
1.18244682036e-13
9.31552995561e-15
5.23356127762e-13
-1.92110785593e-12
2.77825127241e-12
-1.40731965137e-12
1.75045771956e-14
6.81806525344e-14
1.65180927813e-13
-3.44972048331e-12
3.83288645049e-12
-5.57932456731e-13
-5.8595090785e-14
4.67818034063e-14
3.43717174507e-14
-4.06084355527e-12
4.15248561166e-12
-1.29942272439e-13
-4.28533048148e-14
6.40961229888e-14
-2.99670201671e-14
-4.18637608173e-12
4.28608063033e-12
-8.09428930166e-14
-5.28907584226e-14
-2.97457369933e-14
3.71896721039e-14
-4.60181286623e-12
4.87949845559e-12
-1.47635046456e-13
-7.26617184352e-14
-1.29544997404e-14
-3.49977724082e-14
-1.68802310553e-14
-1.04303929786e-12
-8.31619170028e-13
5.83802224437e-12
3.87130361165e-13
6.49505862335e-13
3.28797518499e-11
-3.84174091902e-17
1.75735314122e-12
-1.07118116507e-12
-7.439435938e-13
-1.05336475259e-12
-6.88104118444e-13
-1.17622670922e-12
-8.33951453665e-13
-1.17641339168e-12
-7.92208930722e-13
-6.8163863296e-12
-6.74288094226e-12
-6.81220096559e-12
-6.73020614682e-12
3.53033634421e-11
-2.98018841866e-17
8.08882857127e-13
-3.92048646989e-13
-2.52274497855e-13
-3.89236855711e-13
-2.15608746085e-13
-5.37393438766e-13
-4.59261331955e-13
-5.50188427396e-13
-4.36441780349e-13
3.81708892264e-11
-4.08584098999e-17
1.54350495749e-14
-7.68774504104e-14
-5.06529264622e-14
-9.16430124274e-14
-2.48244359289e-14
-5.33718711028e-13
-7.46653027346e-13
-5.87428254935e-13
-7.71130897487e-13
8.95024090782e-12
-7.23831577865e-17
-1.11001565043e-12
4.09155748474e-13
7.72173689751e-13
4.70374457423e-13
8.25418183574e-13
-1.04939689566e-12
-1.36502466079e-12
-1.15428532448e-12
-1.38348874557e-12
1.16997120901e-11
9.12719646943e-12
1.19788792253e-11
1.16796348262e-12
-2.72514807662e-12
8.35374342136e-12
2.90432744174e-12
-7.50647441269e-13
2.25894097859e-13
-7.35964115883e-13
-1.25925605014e-12
5.24731177368e-13
1.428085303e-12
-1.8348993875e-13
5.20929957342e-11
-6.69530157371e-17
3.13295515109e-12
-2.01396061107e-12
-5.91407394923e-13
-3.34923510443e-12
-1.51292494049e-12
2.49305620005e-12
3.45017473928e-12
2.478040453e-12
3.60628370004e-12
-5.85281937775e-12
-2.43557912087e-11
-5.35623218502e-12
-2.42210748789e-11
4.13948917323e-11
-4.03568241902e-17
1.04721502417e-12
1.28266950376e-13
3.43060537416e-13
-1.49263996141e-13
2.40175810147e-13
2.33764544491e-12
1.9989982273e-12
2.50206530481e-12
2.25002291526e-12
3.71954400753e-11
-7.25143032043e-17
2.93691185531e-13
1.84721967806e-13
8.38215369668e-14
1.26769795602e-13
1.25200125167e-13
9.56093492116e-13
6.06523218633e-13
1.06621695342e-12
7.56429868081e-13
3.67137475986e-11
-5.55928316777e-17
6.73712504117e-14
4.35390645672e-14
-8.24218310131e-14
6.32079659725e-15
-6.40097295718e-14
2.16165814591e-13
8.36572618749e-15
2.3359823902e-13
5.28302513195e-14
8.22300651946e-12
-1.7363263768e-17
-3.06521492615e-13
2.21626657839e-13
3.51424333215e-13
1.50802875196e-13
3.58196568267e-13
2.58781065159e-13
4.46930229834e-13
2.0231387409e-13
4.72664167915e-13
8.45338445942e-12
8.814571049e-12
9.06660834116e-12
3.27696338205e-13
4.69806231184e-13
7.61633025993e-12
-1.16585962072e-13
-7.42362254735e-14
-1.03762229831e-12
3.20440076548e-18
5.78006544243e-12
-3.87134848879e-13
6.44688501587e-13
3.28797035655e-11
-1.17623292433e-12
1.75738364399e-12
-1.0533679125e-12
-6.88106169015e-13
-1.07118842707e-12
-7.43949993294e-13
-6.74288213616e-12
-6.81639133812e-12
-6.73020778271e-12
-6.81220350611e-12
-8.33957644917e-13
-1.17641402834e-12
-7.92211704058e-13
3.53032850123e-11
-5.37404983427e-13
8.08901794746e-13
-3.89242376852e-13
-2.15616282778e-13
-3.92057802321e-13
-2.52282487312e-13
-4.59271995584e-13
-5.50194749303e-13
-4.36449231467e-13
3.81708227655e-11
-5.33736051516e-13
1.54632647323e-14
-9.16490776154e-14
-2.48364973049e-14
-7.6890894377e-14
-5.06729546539e-14
-7.46673191789e-13
-5.87436015654e-13
-7.71144944623e-13
1.16996985809e-11
-1.04942657955e-12
-1.10998087102e-12
4.70362994736e-13
8.25403263009e-13
4.09125980774e-13
7.72144502294e-13
-1.36505644805e-12
-1.15430275088e-12
-1.38351371622e-12
8.95020971257e-12
1.19788652341e-11
9.12716334247e-12
1.17310026374e-12
-1.49802328703e-17
1.41996566252e-11
-2.90429973997e-12
-7.6874670012e-13
1.52040312464e-12
1.77293242565e-18
-1.13833658222e-12
1.00056269837e-11
3.337402242e-12
3.34373294714e-12
1.00235795775e-11
-1.91938144345e-11
-2.11270034977e-12
-1.83535721872e-12
-1.83672335808e-12
-2.11381663152e-12
-3.69929153036e-14
4.08040855347e-19
-1.31908407704e-11
1.32044421314e-11
2.33911461966e-14
-3.15819373528e-13
1.84226648381e-18
-1.33198704702e-11
1.34138166502e-11
2.21871351286e-13
5.20929584146e-11
2.49301974312e-12
3.13303203454e-12
-3.34925365581e-12
-1.51294519011e-12
-2.01398093047e-12
-5.91438309256e-13
-2.43557652418e-11
-5.85282750867e-12
-2.42210353772e-11
-5.35625248583e-12
3.45015177643e-12
2.47801879451e-12
3.60627003987e-12
4.13948085647e-11
2.33761924316e-12
1.04726146547e-12
-1.49281182671e-13
2.4015844047e-13
1.2823828347e-13
3.43038261781e-13
1.99896954265e-12
2.50206289728e-12
2.25000796888e-12
3.71953402995e-11
9.56065863134e-13
2.93713298299e-13
1.26770084117e-13
1.25197220778e-13
1.84708950283e-13
8.3804521418e-14
6.06493234413e-13
1.06620925594e-12
7.56414746033e-13
3.67136927708e-11
2.16139071989e-13
6.73884046592e-14
6.31681031615e-15
-6.40128085088e-14
4.35185547786e-14
-8.24417427754e-14
8.33851681934e-15
2.33584125945e-13
5.28109480687e-14
8.45337739444e-12
2.58752734483e-13
-3.06502990043e-13
1.507930452e-13
3.58188176175e-13
2.21606391591e-13
3.51411557104e-13
8.22300396401e-12
9.06661234951e-12
8.81457231253e-12
4.4691112325e-13
2.0229326073e-13
4.72651403914e-13
3.1551125384e-13
-1.6788821715e-17
8.06170810971e-12
1.16623078368e-13
-4.04487993185e-14
-1.03049919958e-12
8.31622380006e-13
5.80592239201e-12
-1.24664224057e-12
6.3959666811e-13
-9.05035516711e-13
-6.33622142241e-12
6.30826012668e-12
-1.0134253217e-12
7.70191883384e-13
-2.95180316126e-13
-6.15831663182e-12
6.0294107425e-12
-4.10789661721e-13
2.97480280508e-13
-1.1871492715e-14
-5.89339888711e-12
5.7110349828e-12
-3.64904531897e-13
2.54085830772e-14
2.96607505413e-13
-5.47623786202e-12
5.10808816579e-12
-7.40819068319e-13
-2.37053470233e-13
6.91308502212e-13
-4.77403602105e-12
-1.77852061762e-12
-5.99870891435e-13
2.72514722474e-12
1.05453217402e-12
8.07489544613e-13
8.1122177597e-13
1.06272821016e-12
8.91118870009e-14
7.35966928349e-13
-4.685432662e-13
-2.7843676404e-13
-7.80987850994e-14
-5.18283462706e-13
-4.14848873055e-13
1.611468404e-12
1.23958222975e-12
5.75126728102e-13
2.34945681472e-14
-3.10013179818e-12
3.89641157539e-12
1.40732452496e-12
1.10543330948e-13
9.82498957893e-14
-4.78747091911e-12
5.15488290995e-12
5.57937353557e-13
-6.75043307246e-14
3.29292833526e-14
-5.44361375425e-12
5.53191296656e-12
1.29940472961e-13
-3.50086812003e-14
6.50215113232e-14
-5.52741941802e-12
5.65757337877e-12
8.0937389962e-14
-1.73445881087e-14
8.2013315091e-14
-4.69816733887e-13
-5.98857350925e-12
6.31766824888e-12
1.4763253097e-13
-8.89238518079e-14
-1.32646691074e-13
3.16256278639e-13
-3.16880632974e-13
9.36391107841e-14
1.28963174948e-12
-1.62766179629e-13
-9.19098581024e-13
4.93826773677e-13
2.50430101252e-12
3.30225113517e-13
-1.26012706318e-13
-1.02390856329e-13
-7.48245814156e-14
-5.13042872781e-13
-9.18010839863e-13
-5.12206090357e-13
-3.57734572484e-14
1.40307993818e-13
-2.29084621942e-12
2.15524563744e-12
8.06033610637e-14
-2.01800546206e-14
-1.79210519087e-14
-1.14361757209e-14
-2.61556561187e-16
1.23566341967e-13
-2.04962750309e-12
1.93579237831e-12
-3.12058332935e-14
9.03692913979e-15
4.57332520265e-15
8.12595080069e-15
2.69814554363e-14
3.06057580837e-13
-1.76091778757e-12
1.46527646005e-12
-1.28066688742e-13
4.13183986171e-14
2.22090118475e-14
2.71416604998e-14
6.67249807746e-14
1.51567660028e-13
-2.53880928336e-13
1.61135994772e-13
-5.96846162265e-14
-6.58626941102e-14
-4.00171078886e-14
-5.65138394989e-14
7.28523061649e-14
-5.1976677275e-14
2.65645088195e-14
4.90918706343e-14
-2.35359574471e-15
-5.23359244905e-13
-1.09022302079e-12
1.60350570488e-12
-9.59988419411e-15
1.25199570397e-14
3.68764100169e-15
5.82232458431e-15
8.64735722481e-15
-1.65186048575e-13
-1.89673548759e-12
2.04890883831e-12
-2.49130622142e-14
1.8081110986e-14
4.79690888372e-15
6.40034240236e-15
3.78115003447e-15
-3.43761650998e-14
-2.12457978483e-12
2.15872248251e-12
-2.86695843652e-14
1.15652539753e-14
6.07072985217e-15
7.48591852757e-15
4.79711248329e-15
2.99695849091e-14
-2.16058904901e-12
2.13274072013e-12
-5.13385299683e-14
1.88328256939e-14
1.10470048402e-14
1.45403972914e-14
2.42329665858e-14
2.97502829765e-14
-5.52870627462e-13
5.46270076737e-13
-2.95692930083e-14
-1.78124318398e-14
-3.11380562814e-13
-2.68109539358e-13
5.38981144478e-12
1.22444761141e-12
2.51295038314e-14
-3.11060490394e-13
-3.7482586658e-13
-3.74012187429e-13
-3.58898918759e-13
-4.32368107655e-13
-5.48576623809e-12
5.27280837084e-12
9.7949057565e-13
2.47343179868e-14
-1.25433316363e-13
-1.33658057981e-13
-5.10495892387e-12
4.95348217726e-12
4.09278711634e-13
1.28940932537e-15
1.51141005552e-14
-1.20744124626e-13
-4.7919068717e-12
4.52890922507e-12
3.82107176273e-13
-1.34795055796e-14
1.36347144563e-13
-2.90160742869e-13
-4.11615620908e-12
3.53279958966e-12
7.59047092727e-13
-2.18768750136e-14
2.30448960581e-13
-1.46295407283e-13
-2.80344942246e-12
1.69580606689e-12
-2.03721867017e-14
-1.28327926441e-13
-1.46502925363e-13
-1.2820226172e-13
4.15407114419e-13
3.0783289412e-13
4.1683709198e-13
3.06817994898e-13
-1.91829513122e-13
4.7199580397e-14
-6.12958060942e-14
1.03304388473e-12
-1.15360691916e-12
4.0020472748e-14
1.19663603117e-13
4.7191372628e-14
1.19613421752e-13
-3.6561042084e-14
6.06442378009e-13
-2.0806678339e-12
3.10643594375e-12
-1.62256882358e-12
2.69193778183e-14
2.95360372469e-14
2.12168153903e-13
-3.92225779026e-12
4.37745551677e-12
-7.11633027849e-13
1.47311102055e-14
2.76273099641e-14
4.79827024123e-14
-4.64904945238e-12
4.74894642437e-12
-1.77969604877e-13
2.46262050339e-15
3.26598424816e-14
-3.64315415671e-14
-4.77167869542e-12
4.86015903445e-12
-7.78561927246e-14
-6.85244724407e-15
-4.27483056005e-14
5.17989742625e-14
-5.18025509486e-12
5.41997264024e-12
-1.45242909211e-13
-9.10226596019e-15
-2.54040431126e-14
-4.32746590045e-14
-2.57440888829e-14
-3.12248959252e-13
-8.30414467585e-13
5.73753297211e-12
3.88682480789e-13
1.64479739286e-14
3.43067208221e-11
-1.19456590762e-17
-1.50689055811e-12
-1.16786399347e-12
-7.87104829164e-13
-1.16210914513e-12
-7.84828354671e-13
-6.8230638414e-12
-6.75390153027e-12
-6.81580815743e-12
-6.7477711947e-12
3.77939174853e-11
-5.2073102525e-18
-7.24824408644e-13
-5.46276644276e-13
-4.29875655264e-13
-5.46265041574e-13
-4.31059821181e-13
4.06316371225e-11
-6.86661139551e-18
-8.29691721337e-14
-5.85515743179e-13
-7.81718663907e-13
-5.87378179301e-13
-7.84710822452e-13
9.46807473e-12
-3.23860484586e-17
9.23588615895e-13
-1.1639391449e-12
-1.39349746441e-12
-1.16797069976e-12
-1.39843225683e-12
1.23936756911e-11
9.4672663269e-12
1.23928368159e-11
-2.69363073549e-12
4.66138421371e-13
8.7744258522e-12
2.9422151538e-12
-2.10796441613e-14
7.37404253876e-14
-7.09630725576e-13
-1.26332718539e-12
5.1883690671e-13
1.417000225e-12
-3.66193897022e-14
5.21845043547e-11
-1.46596727987e-17
-2.9507787733e-12
2.39272679149e-12
3.53429875441e-12
2.40065779241e-12
3.54497312978e-12
-5.09971399066e-12
-2.38829325881e-11
-5.09995830743e-12
-2.38907959813e-11
4.42758160317e-11
-9.94536327461e-18
-9.82384276805e-13
2.59006348007e-12
2.3729873873e-12
2.59606453956e-12
2.37917963664e-12
4.06625148221e-11
-5.84385672694e-17
-2.21723781613e-13
1.19293673124e-12
8.67309127373e-13
1.1977514116e-12
8.70754213623e-13
4.00129906323e-11
-3.60515967322e-17
-4.74990386212e-14
2.98815502488e-13
8.21888076193e-14
3.00953355271e-13
8.24774971691e-14
9.37274175086e-12
1.6721862534e-17
2.67989103855e-13
1.98499237274e-13
4.76834131616e-13
1.9760609617e-13
4.7453273433e-13
9.67172290182e-12
9.37388986117e-12
9.67260574687e-12
8.52523731654e-14
4.85334478696e-13
8.92718654321e-12
-1.15749356483e-13
-9.28443603991e-15
-3.09580206532e-13
-3.40730989489e-19
5.68488140447e-12
-3.88684806262e-13
1.33839490449e-14
3.43066725256e-11
-1.16786492016e-12
-1.50686709329e-12
-6.75390226184e-12
-6.82306372223e-12
-6.74776876106e-12
-6.8158000185e-12
-7.87104891846e-13
-1.16210270847e-12
-7.84825655962e-13
3.77938373907e-11
-5.46283385558e-13
-7.24798897575e-13
-4.29880255822e-13
-5.46265249537e-13
-4.31058745421e-13
4.06315286454e-11
-5.8552086642e-13
-8.2932638351e-14
-7.81723340731e-13
-5.87373294223e-13
-7.84708730178e-13
1.23936631104e-11
-1.16395112784e-12
9.23629535599e-13
-1.39351344702e-12
-1.16797229937e-12
-1.39844248879e-12
9.46804185474e-12
1.23928140164e-11
9.46723611423e-12
4.87781737131e-13
-1.94798412791e-17
1.48703328109e-11
-2.94219276689e-12
-2.22515935634e-14
5.98892594598e-13
-4.26238997123e-20
-1.62746769243e-14
3.3505162131e-12
1.00576633421e-11
3.35026226704e-12
1.0058413305e-11
-1.95048447561e-11
-1.83249579777e-12
-2.11503553451e-12
-1.83188759473e-12
-2.11521114135e-12
-4.76944037177e-15
8.64644768457e-20
-1.33229091306e-11
1.33261894163e-11
1.48906825809e-15
-5.65601559989e-14
1.0926642909e-18
-1.33962668643e-11
1.3426206604e-11
2.66193236258e-14
5.2184441444e-11
2.39270878623e-12
-2.95074547492e-12
-2.38828892734e-11
-5.09972325089e-12
-2.38907339282e-11
-5.09994763299e-12
3.53429807468e-12
2.40064134377e-12
3.54497568876e-12
4.42757449894e-11
2.5900639871e-12
-9.8238282154e-13
2.37297578287e-12
2.59607058487e-12
2.37917388766e-12
4.06623912503e-11
1.19293651885e-12
-2.21700767516e-13
8.67295713152e-13
1.19775078372e-12
8.70752401274e-13
4.00128714071e-11
2.98809216917e-13
-4.74588185115e-14
8.21738853169e-14
3.00950270947e-13
8.24735563295e-14
9.67171640082e-12
1.98485806659e-13
2.68000023205e-13
9.37274427297e-12
9.67259857521e-12
9.3738755367e-12
4.76825781128e-13
1.97599483179e-13
4.74529970756e-13
7.04679095114e-14
-1.78411607695e-17
9.49356224081e-12
1.15785618502e-13
-8.09643222291e-15
-3.03021444984e-13
8.3041281708e-13
5.67575579539e-12
-1.22444726514e-12
2.13000976397e-14
-4.368812311e-13
-6.32492495562e-12
6.54179174975e-12
-9.79486632864e-13
3.16419365744e-14
-1.84312875594e-13
-6.64683874565e-12
6.68790717257e-12
-4.09283204487e-13
6.24732387633e-15
-1.53677893379e-14
-6.66223283411e-12
6.48721689016e-12
-3.82111695273e-13
-1.30227653851e-14
1.46360666366e-13
-6.19302531034e-12
5.66588964582e-12
-7.59052366218e-13
-2.41231049961e-14
3.54058234673e-13
-5.13535284385e-12
-1.69580800843e-12
-2.1645859169e-14
2.69363127578e-12
8.26200001315e-13
1.07637324817e-12
8.27436065434e-13
1.07510788876e-12
3.34631347241e-14
7.09631613885e-13
-4.57561043832e-13
-2.68352759198e-13
-1.71809455672e-14
-3.65043579204e-13
-6.88550172714e-14
1.63546010525e-12
1.15361877212e-12
3.75512354199e-14
-1.00996846945e-13
-3.50546227313e-12
4.54190242501e-12
1.62257306987e-12
3.205666777e-14
4.05741763968e-14
-5.66468807708e-12
6.08633542076e-12
7.1163754198e-13
1.90871371093e-14
2.90192701536e-14
-6.45349551411e-12
6.53999405468e-12
1.7796899355e-13
5.32430839391e-15
1.65317891191e-14
-6.5500042859e-12
6.65981734311e-12
7.78534181352e-14
-5.7125002471e-15
6.52131026367e-14
-4.85343391169e-13
-6.99047949732e-12
7.27576928958e-12
1.45245304172e-13
-1.04048078997e-14
-2.72957509778e-14
3.11381090603e-13
-3.14816184722e-13
1.39621521392e-14
1.26676858786e-12
-8.93212622865e-13
-1.73838255188e-13
4.32372409531e-13
2.50359719996e-12
1.38581553909e-14
-4.97725058076e-13
-8.893098964e-13
-4.95741873445e-13
-4.89679544242e-14
1.33661347483e-13
-2.39431067894e-12
2.31057692272e-12
-9.59636847376e-16
2.14453417833e-14
1.20746840797e-13
-2.21951699693e-12
2.08518636485e-12
-7.8615504981e-15
8.09218269487e-14
2.90164867907e-13
-1.86840178847e-12
1.51110548829e-12
-1.37903946751e-14
3.52274879987e-14
1.4629608935e-13
-2.58229176004e-13
1.61428145777e-13
-6.5725162481e-14
-1.89968489743e-14
-2.55855993915e-14
-4.7200306552e-14
9.76128807765e-14
-6.77873483183e-14
2.8518505691e-14
1.44431251418e-14
-1.59957203141e-15
-6.06451139052e-13
-1.08080760084e-12
1.67462822646e-12
1.42300854706e-14
1.40196621555e-14
-2.12170480812e-13
-2.04035501782e-12
2.23225399749e-12
6.25183898746e-15
1.87702553849e-14
-4.79821899927e-14
-2.32758833121e-12
2.35717537333e-12
-3.75107509876e-16
3.06610371982e-14
3.64372798755e-14
-2.33739982767e-12
2.27547117244e-12
-5.16966184534e-15
9.34714147878e-15
4.27500738126e-14
-6.16963829959e-13
6.189473067e-13
-4.88247874441e-14
-5.25480421397e-15
-3.08557410967e-13
2.10251845693e-13
5.44742231775e-12
1.20481059618e-12
-5.0549263746e-13
-3.07391797297e-13
-3.70900824301e-13
-3.70142167227e-13
3.09273512897e-13
-4.45356423598e-13
-5.54401156206e-12
5.30275236901e-12
9.74176436396e-13
-5.96834332669e-13
1.25363432702e-13
-1.40577812528e-13
-5.08939930475e-12
4.90172690453e-12
4.14547502925e-13
-2.11660722877e-13
1.24895328757e-14
-1.28401306933e-13
-4.71716398608e-12
4.44981980457e-12
3.89922909146e-13
-6.66695357642e-15
-9.16420839939e-14
-3.05544959339e-13
-4.04929258916e-12
3.49357630896e-12
7.77278305815e-13
1.75625017707e-13
-1.87287827459e-13
-1.5201146952e-13
-2.79113334104e-12
1.76034039473e-12
3.30733949202e-13
-1.34539246973e-13
-1.5316993818e-13
-1.36206672383e-13
4.22947049685e-13
3.09368622271e-13
4.18860765623e-13
3.12097673834e-13
1.06287875615e-13
5.07347052967e-14
-7.70706856661e-14
1.02673665456e-12
-1.21283335561e-12
-1.86804208972e-13
1.20011819167e-13
5.17890727827e-14
1.21148230702e-13
-1.82774484556e-14
6.0138289734e-13
-2.04179046604e-12
3.02092838647e-12
-1.59819202778e-12
3.59486584798e-14
-5.97457482901e-14
2.0529468052e-13
-3.79794551513e-12
4.2348424031e-12
-6.70745701463e-13
8.82998812672e-14
-3.27654935448e-14
4.45931692057e-14
-4.49712100555e-12
4.59646192893e-12
-1.59392201179e-13
4.82236021324e-14
-1.84553467074e-14
-3.56738563551e-14
-4.62390382376e-12
4.71847560372e-12
-7.81152062918e-14
3.76726293707e-14
-4.30481404748e-14
-2.9369535352e-14
-5.0386090487e-12
5.29092818285e-12
-1.20802852254e-13
3.29466130514e-14
-2.58781881758e-14
-4.24452922387e-14
-2.37215202202e-14
2.79095937027e-13
-8.11012000054e-13
5.76953587329e-12
3.79469632293e-13
-6.17089442572e-13
3.27710866844e-11
1.01335312755e-17
-1.02713426991e-12
-1.14813417547e-12
-7.77815349774e-13
-1.13672238541e-12
-8.17239096436e-13
-6.78624345046e-12
-6.7093142006e-12
-6.78163280488e-12
-6.71275642765e-12
-7.07967873462e-13
-1.01581592213e-12
-6.57210196404e-13
3.52314536423e-11
-1.78618155247e-18
-3.75029796907e-13
-5.47281878075e-13
-4.36658215367e-13
-5.37743234724e-13
-4.64010946761e-13
-2.44153612593e-13
-3.73052867731e-13
-2.07270275183e-13
3.81193435004e-11
-8.28127349251e-18
-8.58918574342e-14
-5.92067491146e-13
-7.794732593e-13
-5.47108293569e-13
-7.66167108931e-13
-6.67829678739e-14
-9.6774832497e-14
-3.65956687232e-14
9.12289837952e-12
-2.3866124996e-17
3.79222274476e-13
-1.17023533574e-12
-1.40455846162e-12
-1.08255176312e-12
-1.40317323723e-12
7.37904427814e-13
4.47685204107e-13
7.97300114133e-13
1.1979012642e-11
8.94366930873e-12
1.16957553581e-11
-2.75985724217e-12
-4.25693507449e-13
8.62931852855e-12
2.964264261e-12
7.14864693898e-13
-7.14648825584e-14
-7.15503851716e-13
-1.25876294705e-12
5.19222973777e-13
1.42059763845e-12
1.05911247e-13
5.2131628718e-11
3.32846887891e-17
-1.93204135305e-12
2.48018106237e-12
3.60241400378e-12
2.43210420324e-12
3.42709099121e-12
-5.34156205371e-12
-2.42201287605e-11
-5.83706439873e-12
-2.41734109242e-11
-7.42064917082e-13
-3.28820117213e-12
-1.48976199897e-12
4.15325161009e-11
-2.10501305012e-18
7.88755955998e-14
2.50645173346e-12
2.26426768338e-12
2.33915480886e-12
2.01559285683e-12
3.21083908131e-13
-1.5913842413e-13
2.5042655743e-13
3.72605350403e-11
-3.87524218224e-17
2.02049605409e-13
1.08343381598e-12
7.71547834322e-13
9.80834976476e-13
6.26212707568e-13
9.89860303103e-14
1.44678924901e-13
1.42541199449e-13
3.67423408948e-11
-1.40217503914e-17
5.15923217295e-14
2.43850824965e-13
5.82202957302e-14
2.28875705038e-13
1.23749057994e-14
-7.9701653958e-14
1.51283300418e-14
-5.96154631671e-14
8.82438885291e-12
4.79581307414e-18
2.15486284103e-13
2.00800671559e-13
4.64520826346e-13
2.50498944051e-13
4.31413276151e-13
9.07610826991e-12
8.2371500019e-12
8.46450594882e-12
3.42347572766e-13
1.49132078625e-13
3.53954875091e-13
-6.65289587649e-14
4.40575575645e-13
8.48707970405e-12
-9.64763469791e-14
5.97257784015e-14
2.83497089084e-13
-3.43424499495e-18
5.71656853524e-12
-3.79468455158e-13
-6.20593734934e-13
3.27710214243e-11
-1.1481229432e-12
-1.01581308835e-12
-6.70930938625e-12
-6.7862311099e-12
-6.71275102313e-12
-6.78161646881e-12
-7.77809460213e-13
-1.13670803912e-12
-8.17229724472e-13
-6.57207241526e-13
-1.02711852268e-12
-7.07957746475e-13
3.52313894621e-11
-5.47280002906e-13
-3.73052375618e-13
-4.3665345483e-13
-5.37737065263e-13
-4.64000177762e-13
-2.07270078078e-13
-3.75024753964e-13
-2.44146311708e-13
3.81192664406e-11
-5.92063647865e-13
-9.67775316939e-14
-7.79471594786e-13
-5.47098093737e-13
-7.66161953159e-13
-3.6598455672e-14
-8.58848982731e-14
-6.67798380461e-14
1.19790041933e-11
-1.17023901743e-12
4.47680269159e-13
-1.4045645352e-12
-1.0825507214e-12
-1.40317210579e-12
7.97293705223e-13
3.79226628928e-13
7.37902804669e-13
9.12288412786e-12
1.16957459665e-11
8.94366619883e-12
-4.46333467017e-13
-1.25024990058e-17
1.46559352218e-11
-2.96425009285e-12
7.33660732107e-13
-5.67721724306e-13
-2.21824805145e-18