/*--------------------------------*- C++ -*----------------------------------*\
  =========                 |
  \\      /  F ield         | OpenFOAM: The Open Source CFD Toolbox
   \\    /   O peration     | Website:  https://openfoam.org
    \\  /    A nd           | Version:  7
     \\/     M anipulation  |
\*---------------------------------------------------------------------------*/
FoamFile
{
    version     2.0;
    format      ascii;
    class       volVectorField;
    location    "3";
    object      U;
}
// * * * * * * * * * * * * * * * * * * * * * * * * * * * * * * * * * * * * * //

dimensions      [0 1 -1 0 0 0 0];

internalField   nonuniform List<vector> 
5218
(
(0.040075669063 0.00651709562856 0.00664468106163)
(0.024555455816 0.00429972087874 0.00222885622003)
(0.0161467971498 0.000728485169017 0.000190543710457)
(0.0135185837037 0.000961296002259 5.34583319618e-05)
(0.0104748724696 0.002209191562 1.950483432e-05)
(0.00616397209248 0.00475947942314 -0.000632708049275)
(-0.00468516491549 -0.00101614320703 0.000305949096163)
(0.004619427695 -0.00238386068778 -0.000648781715062)
(0.0105783043107 -0.000685040231281 -0.000408538800605)
(0.0122759325357 0.0001810590886 5.68549983862e-05)
(0.0115255170013 0.000342824604186 0.000373094764451)
(0.0121432982531 -0.000654962935356 0.000499901650329)
(0.0393556728168 0.00130966966196 0.00643501805658)
(0.026890270261 0.0031229613235 0.00166742585188)
(0.0222613434308 0.00153240456759 5.53621298303e-05)
(0.0215461327866 0.00226216319132 0.000256756522772)
(0.0215396246252 0.00615419480972 0.000575476011762)
(0.0289224360323 0.0199038112876 -0.00261624547541)
(0.0100183765245 0.0201554984502 -0.00169539017735)
(0.00373251924191 -0.0251541589549 0.00248067295129)
(0.0153826025769 -0.0103452940171 -0.000994893957583)
(0.0181002559607 -0.00247117375766 -0.000747092024346)
(0.0185598909642 -0.00019080679254 0.000158466202059)
(0.0165205014388 0.000272849135449 0.000918366348078)
(0.0161172166238 -0.000360582701075 0.000779816393053)
(0.0392652556418 -0.000145823338929 0.00641731669929)
(0.026485233421 -0.00104497922096 0.00132304193717)
(0.0231682332757 -0.000550673171668 -0.000121381884528)
(0.0236088627562 -0.000919954711512 0.000201412542776)
(0.0268800603023 -0.00284651434473 0.000726087543041)
(0.0512793230852 -0.0110264362389 -0.000999865376863)
(0.161709545931 -0.0710698984088 -0.00937883432678)
(0.323200506504 -0.00872084206022 0.00439325796738)
(0.273360482042 0.0146329069041 0.00894635042086)
(0.0476123329241 0.0277099610049 9.42400322201e-05)
(0.0267622967751 0.00604405501586 -0.0010259310608)
(0.0211088446522 0.00119230228827 -0.000546184667475)
(0.0200208067741 8.46208597186e-05 0.000286214174806)
(0.0175411083182 -0.0001566648951 0.00115334779951)
(0.0167994097156 6.25546846014e-05 0.00117155700232)
(0.0394306469508 -0.00196507857895 0.00642492359005)
(0.0269561869874 -0.00446904969088 0.0021218277981)
(0.0201449121646 -0.00175458726693 0.000138827565576)
(0.0179503270188 -0.00229253853922 0.000138739049204)
(0.015446922466 -0.00533570626397 0.000209126778656)
(0.0149958586732 -0.0126962384481 -0.00121556165665)
(0.00269933266011 -0.00682784274525 -0.000246997645179)
(-0.00677485924813 0.00780795482389 0.000996399183923)
(0.00773078402185 0.00690737472855 -0.000849698991424)
(0.0141389000444 0.0021017777066 -0.000580759726355)
(0.015755466582 0.00011875314882 0.000170862171455)
(0.0143678514032 -0.000290853643642 0.000763340522984)
(0.0143462502819 0.000546773699766 0.000489418059486)
(0.039729435998 -0.00907235319089 0.00668639954632)
(0.0122636551733 -0.00172925640241 0.000512632632652)
(0.00600829692643 -8.93022908855e-05 3.29265190456e-05)
(0.00477791536593 -0.000206148876313 2.92501355211e-05)
(0.00348495574271 -0.000416322216138 6.04261111461e-05)
(0.00113203319624 -0.000835204065599 -0.000345765793684)
(-0.00312854560491 -0.000473863625976 0.000368645393415)
(0.000228197145692 6.40512958033e-05 -0.000163331145858)
(0.00300271835796 -0.00017759649175 -0.00015595616075)
(0.00384864969358 -0.000328338531084 -9.36123766908e-07)
(0.00350681349593 -0.000397994567301 0.00014074608755)
(0.00322007876234 -0.000311221226587 -1.5403291719e-05)
(0.0533333525212 0.0155120361347 0.00804694248973)
(0.0486488708216 0.0074214699009 0.00774534338313)
(0.0414392302085 0.00188167937214 0.00203215845571)
(0.0373812549148 0.0026442260206 2.55153272208e-05)
(0.0283631548555 0.0054590474871 -0.00153415966857)
(0.0138512257178 0.00814198878032 -0.00406619835898)
(-0.0109410434144 -0.00245266483481 0.00365174067943)
(0.0119658953568 -0.0088568255806 -0.000487833759335)
(0.0285920472139 -0.0042701742598 -0.00131009336641)
(0.0340009456664 -0.000417050215121 -0.000416214478799)
(0.0320561241561 0.00127224837952 0.000187087886856)
(0.0318451394165 0.000152633484599 -0.000625630486074)
(0.0519164113158 0.00500101881619 0.00826198183295)
(0.0641650300791 0.00514485587014 0.00727551651956)
(0.0714764494793 0.00370200550075 0.0030111972292)
(0.0752393679389 0.00503422452606 0.000396242308802)
(0.0802408499901 0.012652948815 -0.00370027975869)
(0.0627930866829 0.0355932331161 -0.00814993120017)
(0.0265436968639 0.0418362630897 -0.00906751675404)
(0.0658516776778 -0.0575153603349 0.0133174412243)
(0.0613593658519 -0.027468337974 0.0016000737861)
(0.0704858651099 -0.0101793779009 -0.000720958135216)
(0.0705691204073 -0.00274220962413 -0.000139639647677)
(0.069027780844 -0.00184485783943 -0.00124622542159)
(0.0527948604634 -0.000334172080766 -0.000107927312519)
(0.0513254304864 -0.00144837921726 0.00793979942536)
(0.0641649984302 -0.00514461961847 0.00727551681919)
(0.0714764250543 -0.00370157592982 0.00301119339584)
(0.0752392284883 -0.00503369442627 0.000396265520777)
(0.0802406303394 -0.0126525821858 -0.00370020971108)
(0.104410221176 -0.0187167189194 -0.00774976260478)
(0.239234291614 -0.0963587556384 -0.0166592839515)
(0.558287549892 -0.024864860169 0.000332765161073)
(0.49994225266 0.0209842126492 0.0104094325549)
(0.0658514137593 0.0575150707063 0.0133175824887)
(0.0613592625928 0.027468056332 0.00160017089013)
(0.070485838071 0.0101792306253 -0.000721033000907)
(0.070569002429 0.00274244468963 -0.0001397605156)
(0.0690277065823 0.00184528688616 -0.00124630926967)
(0.0568306422302 -0.000126805349 0.000715210299682)
(0.0526332870663 -0.00947377861471 0.00851512762053)
(0.0584843565452 -0.00910259920722 0.00872616757453)
(0.05591868694 -0.00505315894371 0.00284615948568)
(0.0533543299427 -0.00553917033444 0.000444119670773)
(0.0453201796933 -0.0115600883396 -0.00154828699967)
(0.0343152777726 -0.0224436116301 -0.00632587448423)
(0.00784166644096 -0.0152680575869 -0.00414506328274)
(-0.0124268133501 0.015889877641 0.00652820948241)
(0.0218997277182 0.0176846102499 7.33973399996e-05)
(0.0420314675147 0.0074780324814 -0.00172727270075)
(0.0481041067651 0.00135989901919 -0.000463540030531)
(0.0451831517667 -0.00125520012883 0.00070992417602)
(0.0447964434964 0.000608849582381 -0.000392088898282)
(0.0511611792184 -0.0139661330886 0.00455771098134)
(0.022633227068 -0.00133125456645 0.00421284658411)
(0.0175742190293 0.000150881862311 0.000777709276774)
(0.0156668102811 -0.000218072003715 -0.00022743987508)
(0.011336555872 -0.00042980448827 -0.00104156538427)
(0.0053043876401 -0.00270361080218 -0.00257374544319)
(-0.00726678191026 -0.00138270330446 0.0024187796776)
(0.00551699585001 0.000765273954423 -0.000434427001865)
(0.0129860655036 0.000452306908254 -0.000531074410419)
(0.0150448784309 -0.000315010174573 -0.000278140763338)
(0.0136467714414 -0.000729647032565 -0.000288704852451)
(0.0168222463123 -0.000732549629028 -0.000578212354652)
(0.0524113750552 0.0149262683192 0.00131181415413)
(0.0480738076541 0.00636684675222 0.00178732953149)
(0.0451344716498 0.00155636460724 0.000552852588772)
(0.0424764166679 0.00276302940378 -0.000124894430865)
(0.0318106990052 0.00605236050053 -0.000639502737088)
(0.013826567805 0.00777701516992 -0.00112163067182)
(-0.012895003768 -0.00228576923561 0.00106938465097)
(0.0141223965278 -0.0107464133433 0.000215767839637)
(0.0340529934775 -0.00572071951124 -0.000188891295401)
(0.040542859027 -0.00078230374111 -0.000127839472831)
(0.038009980431 0.001901485689 -6.57701926079e-05)
(0.0371470258396 0.000697551466595 -0.000198307174851)
(0.0508937288437 0.00461673908831 0.00143647189561)
(0.0654667217089 0.00498796451558 0.000216165573975)
(0.0762896308517 0.00363382163463 3.4435977825e-05)
(0.0825947507794 0.00485896346318 -0.000109851437304)
(0.0870438465732 0.0123986555139 -0.000183626501849)
(0.0673447292216 0.0363763687196 -0.00228966765569)
(0.0249249929166 0.0409980605911 -0.00219028999772)
(0.0624315678677 -0.0582618558702 0.000107487381255)
(0.0652074231552 -0.0302396309791 0.000157270107734)
(0.0784744937081 -0.012382970725 0.000111781524585)
(0.0796835704242 -0.00397347495881 1.49624184293e-05)
(0.0773405297935 -0.00235875480756 -6.19213141052e-05)
(0.0658132791901 0.000242018481174 -0.000193061908892)
(0.0501748898011 -0.00127839316653 0.00137818538366)
(0.0654667339606 -0.00498775154857 0.000216145059184)
(0.0762895539571 -0.00363337901462 3.43955191556e-05)
(0.0825945909273 -0.00485841451104 -0.000109883652693)
(0.0870434661028 -0.0123982717291 -0.000183668324409)
(0.111983977375 -0.0190510103793 -0.00246895709053)
(0.23895938457 -0.0966733557389 -0.00324936030891)
(0.56430671988 -0.0252857776284 -3.35609548447e-05)
(0.501700617802 0.0210326377683 0.0014362114837)
(0.0624311235009 0.0582616811845 0.000107511816063)
(0.0652074017378 0.0302393791754 0.000157230219103)
(0.078474433065 0.0123827543458 0.000111735872486)
(0.0796832637174 0.00397361125675 1.49106876545e-05)
(0.077340296485 0.00235915018659 -6.20148790282e-05)
(0.0716066056784 -0.000121314503402 -0.000111530724179)
(0.0517002803434 -0.00896885386409 0.00144514597268)
(0.0592505590876 -0.00855821629866 0.00222237894594)
(0.0621597820276 -0.00508929948169 0.000855072768613)
(0.0618818656291 -0.00544374518192 -3.56848264232e-05)
(0.0525335981734 -0.0117342599583 -0.00082137289197)
(0.0359138490964 -0.0222493198457 -0.00172330800957)
(0.00690026072675 -0.0144915773065 -0.00105241846365)
(-0.0137818671647 0.0167803581131 0.00183626978797)
(0.0270414819239 0.0197590701507 0.000585613408004)
(0.0514638689891 0.00949622221325 -0.000170667509085)
(0.0588856077722 0.00270467307671 -0.000140708213581)
(0.0557587910654 -0.000728233528709 -6.83809111531e-05)
(0.0542470586752 9.47831520861e-05 -0.000254986637029)
(0.0507605742932 -0.0137124958722 0.000784454562342)
(0.0215963293727 -0.000902193338003 0.000850858826407)
(0.0188732268497 0.00041130799297 0.000193945517551)
(0.0174313656966 -0.00020591742906 -0.000111520511396)
(0.0119832177362 -0.000568396397128 -0.00034970965963)
(0.00511764957057 -0.00281904884909 -0.00102033207148)
(-0.00843630326406 -0.00164728631036 0.000779536061955)
(0.00525215921082 0.00119843905118 1.36370987837e-05)
(0.0145076272991 0.000814099989449 -0.000113813713963)
(0.0170856437797 -0.000368406255079 -8.91111500059e-05)
(0.0149502022237 -0.00113736621383 -0.000100650494408)
(0.0196852874837 -0.0013309436815 -0.000266722587617)
(0.0527426385412 0.014937228383 -0.00375455768161)
(0.0488065327637 0.00672873905776 -0.00478956560521)
(0.0447650103451 0.00180357655121 -0.00167734978812)
(0.0415459205453 0.00288702153218 -0.000237392772552)
(0.0312416033971 0.00609562665782 0.000975356543577)
(0.0140778229782 0.00814666160343 0.00264340160545)
(-0.0122089074845 -0.00235185502005 -0.00208723586366)
(0.0136014554322 -0.0104000332587 0.000518573251874)
(0.0325905358713 -0.00539648774835 0.00113712138129)
(0.0388013811149 -0.000672216290006 0.000378404593048)
(0.0365450553771 0.00179145015315 -0.000196734554479)
(0.0359199579741 0.000659464357052 0.00021139962728)
(0.0511714796382 0.00466178303206 -0.00411583614544)
(0.0638489372238 0.00501591734257 -0.00686155329523)
(0.0713628157287 0.00367569123957 -0.00294684678174)
(0.0752646423821 0.00503373706816 -0.000556303671489)
(0.0802833739395 0.0127025661354 0.00339998895853)
(0.0656157786799 0.0366393424076 0.00534064437426)
(0.0251422276442 0.041186345184 0.00381555128683)
(0.0662538264888 -0.0575242411868 -0.0132048129696)
(0.0614010413668 -0.0275700341857 -0.00143812733845)
(0.0705545476034 -0.0103152347202 0.000957888434459)
(0.070681414188 -0.00281267843868 0.000194121330709)
(0.0691335452413 -0.00185498690909 0.00117419138465)
(0.0614170626365 0.000398239896435 5.91991802075e-05)
(0.0504638541912 -0.00130860614688 -0.00396494510683)
(0.0638488662217 -0.00501572508649 -0.00686151244108)
(0.0713627537779 -0.00367536123757 -0.00294681320609)
(0.0752645148217 -0.00503334838372 -0.000556267165487)
(0.080283124829 -0.0127023079459 0.0033999796251)
(0.109394481566 -0.0192573713541 0.00541412087903)
(0.239108338242 -0.0966730730987 0.00950892441769)
(0.563613401416 -0.0252397734463 -2.48121672679e-05)
(0.501797969148 0.0210440896287 -0.00277604736702)
(0.0662536856454 0.0575242527047 -0.0132048032035)
(0.0614010685458 0.0275698056859 -0.00143814215602)
(0.0705544472265 0.0103150236278 0.000957949644134)
(0.0706813366032 0.00281275418562 0.000194160856067)
(0.0691334564196 0.00185524005159 0.00117414392627)
(0.0665649531363 -0.000367229362616 -0.000303703262318)
(0.0520277802928 -0.00900802625739 -0.00414529275115)
(0.0594928798076 -0.00862997553771 -0.00544161649796)
(0.0608293613457 -0.00514385628801 -0.00227775484814)
(0.059582631927 -0.00569169764953 -0.000578846978435)
(0.0505358649428 -0.0120435633878 0.000879598169624)
(0.0357212140461 -0.0228344723523 0.00418254172897)
(0.00701077361179 -0.0146382821532 0.00176164045217)
(-0.0128399491855 0.0170119812984 -0.00442108424241)
(0.0258135504458 0.0195441769568 -0.000212962478791)
(0.04866723411 0.00903022979899 0.00147398773909)
(0.0555284729214 0.00227565916901 0.000549277565108)
(0.0524996499232 -0.000930189878542 -0.000553275465571)
(0.0515229371488 -0.000168346953071 0.000154201483695)
(0.0508503499156 -0.013697594863 -0.00130069830465)
(0.022296404485 -0.00109499206932 -0.00251717689532)
(0.0190021980463 0.00029282229465 -0.000786744419921)
(0.0172787510516 -0.000244296240093 -3.87931388777e-05)
(0.0119856700595 -0.000554153937704 0.000526782315287)
(0.00531735944702 -0.00293374012518 0.00135802408099)
(-0.00807326218354 -0.00163929742896 -0.00107174190192)
(0.00514398227166 0.00110528841848 0.000549553401375)
(0.01404149346 0.000750499097816 0.000590753603407)
(0.0165567143698 -0.000363427885522 0.000193518347376)
(0.0146305996836 -0.00106102407301 3.23660497371e-06)
(0.0195338812721 -0.00133859993736 0.000204530031214)
(0.0547814935675 0.0149559251183 -0.0139420916526)
(0.044906632349 0.00730665720011 -0.00797907514927)
(0.0349391975281 0.00205978704782 -0.00170336471273)
(0.0302337707963 0.00250815813466 -0.000206484293202)
(0.0228998434058 0.00500140522108 0.000907596629821)
(0.0121650442943 0.00830489115506 0.00344766104923)
(-0.00931482294815 -0.00171438419977 -0.00257926188461)
(0.00839536784974 -0.00642109317916 0.00128084290996)
(0.0217176342591 -0.0028449337965 0.00141054920512)
(0.0261525088094 -5.98936128703e-05 0.000275237481757)
(0.0248721546585 0.00105142310754 -0.000407803921093)
(0.0237413968789 0.000217817395439 0.000207630613612)
(0.0529359085586 0.00437307730564 -0.0138975224846)
(0.0520182300923 0.00566215353796 -0.00802124266826)
(0.0498260658247 0.00343994577065 -0.00303099646778)
(0.0493334958753 0.00458169031329 -0.0013193714632)
(0.0478743245203 0.0114001896575 -0.000411902063718)
(0.0547813346635 0.0325292006499 0.00794272727179)
(0.0267215037745 0.0420781383438 0.0107092851154)
(0.0222384244913 -0.0432350003354 -0.0126474797451)
(0.033421811881 -0.0229791798102 -0.00229208825614)
(0.0403963378091 -0.00709067556465 0.000667437140619)
(0.0424849155216 -0.00135126120381 -0.000382357173532)
(0.0390488600711 0.000453777103176 -0.00187083990032)
(0.0383007896369 -0.000407376977361 -0.000671268124412)
(0.0525114607728 -0.0012763398927 -0.0136903395816)
(0.052120339766 -0.00188147454491 -0.00752238034646)
(0.0524552814076 -0.0013809172907 -0.00270882357468)
(0.0540401702593 -0.00200345524591 -0.000747652423421)
(0.0577837043105 -0.00542151009085 0.00115120266048)
(0.0903937037896 -0.0172349605188 0.00719651582339)
(0.230860268832 -0.09385592642 0.0216690397888)
(0.553389169735 -0.0244549364563 -0.00125299622048)
(0.495123514105 0.0207166061202 -0.0147381083857)
(0.107063332315 0.0487309517724 -0.017580895985)
(0.0551335834245 0.0136630296636 -0.00752215247338)
(0.0473094486223 0.00380005424842 -0.000496289962385)
(0.046425823247 0.000793667610082 -0.000364901879022)
(0.0422365894978 -0.00037487459947 -0.00168605134538)
(0.0407975778485 4.23172076357e-05 -0.0015265830504)
(0.0535888522826 -0.00848749631289 -0.0141321744253)
(0.0515261479705 -0.00784859164015 -0.00819468829535)
(0.0450050668549 -0.00381551802391 -0.00199490476044)
(0.0417361482226 -0.00470072300692 -0.000407333897158)
(0.03589356844 -0.0102951146538 0.00104075916791)
(0.0292371375533 -0.0212128712523 0.00588277662911)
(0.00807746287922 -0.0157939574079 0.00461219573784)
(-0.00729503168055 0.0139609031284 -0.00520921443735)
(0.0181194805469 0.0160492264619 0.00148910340273)
(0.0320445069473 0.00609830181211 0.00202129299401)
(0.0364549636033 0.00107936467327 0.000341895223688)
(0.0345659630288 -0.000485866959063 -0.00080235495795)
(0.032442472145 0.000719320878584 -7.25547511719e-05)
(0.0513113952738 -0.0134474520388 -0.00641060817451)
(0.0242810303953 -0.00189240735071 -0.00484722633397)
(0.0164614855755 -8.18883476656e-05 -0.000791963806165)
(0.0138477082264 -0.000254497144373 -1.65798857524e-05)
(0.0100412956087 -0.000350972008788 0.000483106034254)
(0.0055117700337 -0.00306261909698 0.00206592168014)
(-0.00653768303231 -0.00141223775975 -0.00186554412552)
(0.00427865035173 0.0003623359631 0.000935824318781)
(0.0107702497008 0.000247160958208 0.000676889072893)
(0.0126769500095 -0.000290305097221 0.000211281071428)
(0.0118871808519 -0.00056903245179 7.52895497001e-05)
(0.0132608781665 -0.000698519030944 0.000578859871263)
(0.0513113442731 0.01344748473 -0.00641055970115)
(0.0373693957551 0.00547915872065 -0.00794918100651)
(0.0397750801166 0.00887065389682 -0.00668866154738)
(0.017621808375 0.00320759008384 -0.00106510149646)
(0.0242809937858 0.00189241080435 -0.00484720130531)
(0.0188715059998 0.000452177317614 -0.00208575821577)
(0.0125380662472 0.00159468901927 -0.000473273318456)
(0.00715963458782 9.57507947663e-05 -0.000133070242019)
(0.0164614669749 8.18955253346e-05 -0.00079188041591)
(0.0150718043094 9.23183298454e-05 -0.00024084306553)
(0.0064516149632 0.00013563696511 1.68471569965e-05)
(0.00547704439153 1.90305628606e-05 -9.34620937493e-07)
(0.0138477585376 0.000254521591246 -1.64976348889e-05)
(0.0122950152604 0.000390007151168 0.000189395534673)
(0.00517242840075 0.000274448337188 2.61944425393e-05)
(0.00426055222924 0.000209970586704 -3.40261450467e-05)
(0.0100414292393 0.000350985549015 0.000483104179591)
(0.00748795919842 0.000379663994329 0.00113591586524)
(0.00376996562888 0.000506692055555 -7.73501858011e-06)
(0.00208561927819 0.000470562764091 8.3203376535e-05)
(0.00551184951693 0.00306266665382 0.00206601421663)
(0.00120569816953 0.000954068774591 0.000307635749589)
(-0.00437863594612 0.00336436713213 -0.00225774460824)
(-0.00206480616569 0.00106767657364 -0.000431849651101)
(-0.00653772437491 0.00141212537967 -0.00186536396728)
(-0.000174938290119 -0.000137009326689 0.000567922184463)
(-0.00338447810021 0.000515016458564 -0.000421911571151)
(-0.00104817905342 -0.000438410539025 0.000138544585956)
(0.0042785611821 -0.000362359268742 0.000935818337269)
(0.00826875500111 -0.000462728313424 0.000899198605567)
(0.000192317700817 -2.84172325529e-05 0.000261155926515)
(0.00249875104016 -0.000454896219557 0.000145902620769)
(0.0107701288052 -0.00024718142859 0.000676822138876)
(0.0121426559217 -9.71629166084e-06 0.00047366488951)
(0.0031329852162 0.000138861953557 0.000164386560135)
(0.00396807272568 -0.000205945191928 2.97691090703e-05)
(0.0126768792191 0.000290317477673 0.000211330066622)
(0.0124991648058 0.000525843107403 4.30568906495e-05)
(0.00408308558623 0.000321464476782 3.41580950093e-05)
(0.00398212211382 -3.45430970934e-05 -0.000125584651123)
(0.0118871463832 0.000569078526473 7.53959220736e-05)
(0.011477444034 0.000280330888746 0.00057833221964)
(0.00377903290011 0.000415095638406 -6.198770855e-05)
(0.00362512357245 -0.000188975751762 -0.000147811128498)
(0.0132608901333 0.000698538217864 0.000578908742974)
(0.0155319013207 -0.000205378300922 5.01932080986e-05)
(0.00340134379952 0.000257937601524 7.88313396222e-06)
(0.00449705057443 7.61218462906e-05 -0.000209534865306)
(0.0011323823137 0.00192842036121 0.00109745900703)
(0.0292372434504 0.0212128082657 0.00588277390581)
(0.0201311179447 0.0287683283143 0.00729849988358)
(0.00628740242761 0.00490934348295 0.000693292105675)
(0.000579892704688 0.000702647861381 4.19809388024e-05)
(0.0150920251664 0.0128073083955 0.00127513123504)
(0.00664494427103 0.0118654294292 0.00260184540376)
(0.00807746112946 0.0157939232412 0.00461216861277)
(0.00271032914036 0.00683923486645 0.000252560414413)
(-0.00611666228423 0.0058676106428 -0.00279660373253)
(-0.0084323964661 0.00864903354808 -0.00622124724902)
(-0.00357112883423 0.00197909940209 -0.000795614695887)
(-0.00818181639551 0.000399645952009 -0.000240417149717)
(0.230860304642 0.0938558964881 0.0216690814539)
(0.54879820734 0.0735951398613 0.00578505060371)
(0.0100448694127 0.0201656410252 0.00170508950231)
(0.161729382221 0.0710635674795 0.00939868198211)
(0.327966189502 0.0356262575003 -0.00477221579148)
(0.553389171246 0.0244548003246 -0.00125300181764)
(0.540382103756 -0.000432083737184 -0.0109905227459)
(0.323177675383 0.00871098482413 -0.0043707119522)
(0.297325253407 -0.00122866932655 -0.00318266307272)
(0.000970539232377 -0.0205253076536 -0.0167057842829)
(0.495123500001 -0.0207166069756 -0.0147380891368)
(0.200597415888 -0.0916686743545 -0.0325523553888)
(-0.0107422264137 -0.00719802685794 -0.00172225728361)
(0.273495856984 -0.0146265805098 -0.00888415534781)
(0.100101750875 -0.0633685122841 -0.00715131062846)
(0.548798423617 -0.0735952006827 0.0057850370475)
(0.0267214327744 -0.0420781447183 0.0107093177111)
(0.161729249374 -0.0710636013486 0.0093986590744)
(0.32796612725 -0.0356263475644 -0.00477216597238)
(0.0100448561383 -0.0201657944894 0.00170509986297)
(0.540382105171 0.000432091074475 -0.0109905599637)
(0.32317760126 -0.00871108325217 -0.00437068577772)
(0.297325304596 0.00122873090972 -0.00318265259455)
(0.200597261946 0.0916689435733 -0.0325523231645)
(0.00097081020622 0.0205253850505 -0.0167059293795)
(0.273495828172 0.0146266753242 -0.00888426914755)
(0.100102040794 0.0633687073088 -0.00715132332363)
(-0.0107422072627 0.00719793103349 -0.00172217352)
(0.0201310839771 -0.0287682859589 0.00729852334277)
(0.0121648857252 -0.00830497039191 0.0034476730944)
(0.00113231191546 -0.00192843787801 0.00109740855815)
(0.0150919082655 -0.0128073523151 0.00127509756133)
(0.00664495579151 -0.011865441925 0.00260184966928)
(0.00628722718873 -0.00490924090979 0.000693260269185)
(0.00057979535122 -0.000702624945446 4.19920090059e-05)
(0.002710280278 -0.00683927579433 0.00025252732117)
(-0.00843241959827 -0.00864918854961 -0.00622138506617)
(-0.00611665667399 -0.00586770922429 -0.00279663316603)
(-0.00818180704307 -0.000399729350805 -0.000240420822162)
(-0.00357117804013 -0.00197905535671 -0.000795548685523)
(0.037369374817 -0.00547915710797 -0.0079492430454)
(0.0397750970607 -0.0088706547472 -0.00668866435196)
(0.0176218538427 -0.00320764301771 -0.00106514208295)
(0.0188714935648 -0.000452184196549 -0.0020858109279)
(0.0125381225683 -0.00159469337693 -0.000473362571892)
(0.00715966631513 -9.5735089654e-05 -0.000133091665641)
(0.0150718088525 -9.22984356133e-05 -0.000240934069418)
(0.00645165461508 -0.000135628487102 1.68146435828e-05)
(0.00547706847561 -1.90047301126e-05 -9.40675821254e-07)
(0.0122949146669 -0.000389992650663 0.000189356937514)
(0.00517243297857 -0.00027444897408 2.62079143298e-05)
(0.00426054674141 -0.000209944006703 -3.40586452625e-05)
(0.00748783070786 -0.000379551731485 0.00113589542003)
(0.0037699320813 -0.000506690512953 -7.74085133011e-06)
(0.00208556167244 -0.00047056848325 8.31104439243e-05)
(0.00120564967483 -0.000954111753241 0.000307481116901)
(-0.00437863187156 -0.00336451783353 -0.00225789768236)
(-0.00206467967576 -0.00106781227076 -0.000431916908393)
(-0.000174795862377 0.000136959346525 0.000567880509414)
(-0.0033845808872 -0.000514884871849 -0.000421747915722)
(-0.00104807506976 0.000438352189168 0.000138602303028)
(0.00826890781161 0.000462746872771 0.000899257782241)
(0.00019240088813 2.84235421382e-05 0.000261207963296)
(0.00249886748597 0.000454984008084 0.000145939589337)
(0.0121428183495 9.75376508527e-06 0.000473667772075)
(0.00313308263359 -0.00013879740947 0.000164440338673)
(0.00396813808753 0.000206014457468 2.97825432771e-05)
(0.0124992598683 -0.000525792531471 4.29627569266e-05)
(0.00408313120407 -0.000321420363202 3.41645175041e-05)
(0.00398219220159 3.45788171684e-05 -0.000125568877344)
(0.0114774441378 -0.000280229396596 0.000578247711237)
(0.00377905660776 -0.000415087512559 -6.1952663724e-05)
(0.00362510852879 0.000189042176186 -0.000147812035245)
(0.015531772391 0.00020538043301 5.01405452374e-05)
(0.00340129396093 -0.00025789102927 7.87562463404e-06)
(0.00449699107935 -7.61087617312e-05 -0.000209550751294)
(0.0397294239496 0.00907235041533 0.00668641051456)
(0.017519373174 0.00346585720872 0.00108684066665)
(0.0514895019366 0.0139678004723 0.0068022676355)
(0.0395749337973 0.00688829037346 0.00815265737814)
(0.012263613285 0.00172930213521 0.000512584905303)
(0.00670866574387 6.7703736319e-05 0.000126881605125)
(0.0324020553673 0.00393333173357 0.00653609708546)
(0.0228526513261 0.000611423811859 0.00215199135999)
(0.00600820201436 8.93539778089e-05 3.28733162935e-05)
(0.00505856930087 -4.97836534098e-05 3.97202949679e-06)
(0.0214404932311 0.000453511634176 0.00149607903997)
(0.0190525672636 0.000297182911058 6.12817946347e-05)
(0.00477788486163 0.000206286089789 2.91728388299e-05)
(0.00393393722844 0.000109294883697 4.70677505335e-05)
(0.0182312842863 0.000764108664595 0.000203441902681)
(0.0155344856824 0.00104977977461 -0.000686927046207)
(0.00348501309859 0.000416406614129 6.03666674419e-05)
(0.00196500664074 0.000365859196548 -0.000212108305032)
(0.0139223891686 0.00158709936627 -0.000551765528048)
(0.00827416265962 0.00179419865658 -0.001874368452)
(0.00113208665228 0.00083523282207 -0.000345730084341)
(0.00537265931928 0.00260384652471 -0.00210032112624)
(-0.00192715568745 0.000991207944559 0.000278319032347)
(-0.00448444616801 0.00234138188939 0.0026438190174)
(-0.00312849683873 0.00047386489239 0.000368706966904)
(-0.000923706746104 -0.000539983096421 -6.62041893511e-05)
(-0.00607933766412 0.000692834016164 0.00221113604594)
(0.000524349237689 -0.00184184880102 -0.000261717838347)
(0.000228130345584 -6.407531741e-05 -0.000163280715653)
(0.00241642957004 -0.000410119790639 -0.000201715305928)
(0.00426984916426 -0.00134042860517 1.45079329385e-05)
(0.0106483877943 -0.00155655553188 -0.00109755431864)
(0.00300259911087 0.000177604826327 -0.000155947915814)
(0.00375860668917 -0.000180887990942 -6.46246668352e-05)
(0.0124911738415 -0.000535356573749 -0.000316714916504)
(0.0149149123809 -0.000533702159271 -0.000798758509906)
(0.00384851628624 0.00032834843642 -9.44582342433e-07)
(0.00371629278856 -4.85269080584e-05 0.000121459568277)
(0.0153334572929 0.000351289725506 2.86034174043e-05)
(0.0153964384512 0.000250086425877 -0.000398346472638)
(0.00350683220228 0.000398034504539 0.000140685532801)
(0.00335822749447 -0.000170687230008 0.000106994748781)
(0.0148325313193 0.000856466900859 0.000224163948655)
(0.0146896159112 8.29438605271e-05 -0.000659935604458)
(0.0032202399547 0.000311178639782 -1.54222963533e-05)
(0.00439991668681 1.09295731112e-05 7.57234634043e-05)
(0.0152153409142 0.000745262781239 -0.000451841038145)
(0.0155890407945 -0.000180965439304 -8.72275533529e-05)
(0.000564215539864 0.000691291457344 -3.91153267119e-05)
(0.0149959941104 0.0126962559755 -0.00121551549241)
(0.00661343373809 0.011834661002 -0.00258241002288)
(0.0119122225509 0.00791667580618 -0.0035218681709)
(0.00109515189527 0.00186905321127 -0.00112012142291)
(0.0290229147161 0.0209528081462 -0.00594224822479)
(0.0200283659743 0.0286184377031 -0.00736218679419)
(0.00269938879934 0.00682778929942 -0.000247025461672)
(0.00804186899534 0.015746028416 -0.00462805873863)
(-0.00340752749757 0.0019056916123 0.000441773602357)
(-0.00827615635499 0.000270725221643 0.000900459281825)
(-0.00693097631934 0.00405024167467 0.00445831214751)
(-0.00621407068247 -0.0066335715728 0.00955143119463)
(0.161709499505 0.071069658484 -0.00937877735902)
(0.328030957169 0.0356572583905 0.00479090322912)
(0.026654219222 0.0420243922024 -0.0107263499168)
(0.230829043121 0.0938398134144 -0.0217144906798)
(0.548916911434 0.0736488124662 -0.0058237527154)
(0.323200469507 0.00872084182818 0.00439323301854)
(0.297204562722 -0.00123231963724 0.00324292529293)
(0.553503831855 0.0244822286244 0.00121883409195)
(0.540593197098 -0.00040623996663 0.0109044468857)
(-0.0106704905454 -0.0075527649629 0.00283342695662)
(0.273360474996 -0.014632903127 0.00894635277219)
(0.101741634045 -0.0626205335525 0.00724113545186)
(-0.00493101818235 -0.0178486385776 0.017537461017)
(0.495693298945 -0.0208903657334 0.0145952976134)
(0.206327275744 -0.0877066705653 0.0332683795681)
(0.328030997471 -0.0356572840561 0.00479090460324)
(0.0100183013728 -0.0201555659476 -0.00169544729517)
(0.230828964335 -0.0938398743151 -0.021714520527)
(0.548917017592 -0.0736488497858 -0.00582368872679)
(0.026654114863 -0.0420243490572 -0.0107264421696)
(0.297204643895 0.00123226406916 0.00324284547142)
(0.553503894413 -0.0244823291178 0.00121881280756)
(0.540593244738 0.000406253838943 0.010904450811)
(0.101741505239 0.0626205078541 0.0072411730999)
(-0.0106704314555 0.00755273458921 0.00283349623449)