/*--------------------------------*- C++ -*----------------------------------*\
  =========                 |
  \\      /  F ield         | OpenFOAM: The Open Source CFD Toolbox
   \\    /   O peration     | Website:  https://openfoam.org
    \\  /    A nd           | Version:  7
     \\/     M anipulation  |
\*---------------------------------------------------------------------------*/
FoamFile
{
    version     2.0;
    format      ascii;
    class       volScalarField;
    location    "1";
    object      p;
}
// * * * * * * * * * * * * * * * * * * * * * * * * * * * * * * * * * * * * * //

dimensions      [0 2 -2 0 0 0 0];

internalField   nonuniform List<scalar> 
5218
(
6.08576698416
5.96959591969
5.9203630428
5.87881458794
5.83985288627
5.80614657088
0.239206469881
0.211653193697
0.176329204704
0.138525179456
0.0975797006988
0.0526290091106
6.0578327327
5.96165220206
5.9171715045
5.87651056852
5.83253106998
5.76958480903
5.69555261701
0.269895476196
0.219071136253
0.17841253955
0.140006528582
0.100079604664
0.055944004075
6.05250165778
5.95942076917
5.91611973342
5.87570564595
5.82959636959
5.75239902293
5.56910192138
3.95393442334
1.28743228449
0.296288898455
0.222593188635
0.179162764837
0.140498222963
0.100914186438
0.0568547189578
6.06162444577
5.96565327905
5.91891926373
5.87772940233
5.83654496717
5.79230666721
5.72525712194
0.250001354661
0.214829219655
0.177292527909
0.139190491336
0.0986251847612
0.0543179109665
6.10152480276
5.98102381748
5.92660970137
5.88417840636
5.84555347988
5.81313499881
0.238219690501
0.214415809852
0.180445751331
0.143093101755
0.102554853618
0.0562879113859
6.02500927189
5.96462637245
5.91858421501
5.87940899438
5.84341977695
5.81183591108
0.237968359004
0.209821211008
0.175896790153
0.139056258042
0.0990688033745
0.0468100967096
6.00360904721
5.93760314374
5.90352371089
5.8675910373
5.83004369383
5.7850512608
5.70309473636
0.24681085356
0.206777574912
0.169340145474
0.132985119936
0.0976588444003
0.0549171077883
5.99912938616
5.93760326098
5.90352382042
5.86759116027
5.83004368921
5.77001793588
5.57951001357
3.95665821686
1.25237877629
0.246810709432
0.206777511563
0.169340278104
0.132985265412
0.0976589230105
0.0570508490125
6.01280954383
5.95982304642
5.91626961293
5.87798301594
5.84056645058
5.80016839833
5.73166158541
0.246825438383
0.21326306996
0.177223035964
0.140264007836
0.101428892197
0.0484646913056
6.06125633903
5.96212913248
5.91931575221
5.88035529224
5.84611854223
5.81984691114
0.236978702716
0.207193764216
0.175025573857
0.138541568616
0.0995576167829
0.0578447935335
6.01794741387
5.96059097952
5.91723927112
5.8798042653
5.84571529815
5.81590957943
0.235932792805
0.208521134087
0.175546494499
0.139409624167
0.100244182985
0.0474411581976
5.99580525469
5.9353942369
5.90291300531
5.86812765768
5.83237904373
5.79218929999
5.70994727844
0.243590826983
0.20586122395
0.169249948622
0.133448000396
0.0990031772327
0.0572529125184
5.99090448237
5.93539432208
5.90291314064
5.86812777575
5.83237916583
5.77812079536
5.58549161059
3.95615835128
1.23473404133
0.243590772807
0.205861189504
0.169250036744
0.133448151083
0.0990032951589
0.0599156601185
6.00568277301
5.95548113977
5.91462927532
5.87822581715
5.8430278909
5.8052601507
5.73801698059
0.243417178888
0.211913469379
0.1769631936
0.140770410203
0.102994785199
0.0494452326542
6.05197904997
5.95804076002
5.91824195971
5.88076753868
5.84811615247
5.82450270415
0.235050330267
0.205952780527
0.174643878907
0.138760630175
0.100634053411
0.0600757587469
6.01885502416
5.96140542843
5.91767787194
5.87988172522
5.84540771069
5.81516462518
0.236258815133
0.208556722221
0.175429148828
0.139179296066
0.0998966083674
0.0474230645277
5.9976364353
5.93730974277
5.903480287
5.86774328889
5.83035545359
5.79039018427
5.7092280412
0.246363058183
0.2065184387
0.169200689925
0.132943446517
0.0977010395856
0.0565134021569
5.99299497945
5.93730989072
5.90348045101
5.86774342315
5.83035554581
5.77601309484
5.58384313818
3.95720589699
1.23797140272
0.246362894451
0.206518391466
0.169200776457
0.132943546848
0.0977011222735
0.0589996766061
6.00704952256
5.95646135188
5.91509513917
5.87825913439
5.84252158582
5.80406819126
5.73740065854
0.244200753581
0.212108669655
0.176881424931
0.140518328532
0.102504354416
0.049194054339
6.05172139029
5.95891310375
5.91868286326
5.88086687027
5.84791853403
5.82445174383
0.234997194516
0.205919557497
0.17451389748
0.138539457508
0.100278244229
0.0600753086722
6.02774616174
5.96651402447
5.91958238034
5.87975171536
5.84303608145
5.81047697941
0.237788987422
0.209469058935
0.175437939323
0.138466966896
0.0982378429674
0.0490556259418
6.01092478411
5.95779763094
5.91554415956
5.87708042502
5.83641660037
5.77533354204
5.70120721777
0.263353981919
0.216963112991
0.177980500102
0.14052223001
0.101984729434
0.0512712219596
6.00743587822
5.9553173635
5.91438859011
5.87628598497
5.83403574488
5.75877015848
5.57504575815
3.95916228731
1.27017452781
0.28870288584
0.220101554687
0.178700015342
0.141042932853
0.103023063734
0.0523949170672
6.01781460195
5.96291507384
5.91775252281
5.87833466566
5.83931939237
5.79660081823
5.73030795482
0.247318359757
0.213147183028
0.176726289788
0.139408373358
0.0995461088924
0.0490904538323
6.05724098122
5.96712176151
5.92039374989
5.88069825373
5.84597201679
5.82080045159
0.236303815958
0.206818328481
0.174602587498
0.138001325259
0.0982560848724
0.0535372633398
6.05724077909
5.99749887457
6.09299566155
5.99381194129
5.96712115705
5.94246789585
5.97695620828
5.93742261315
5.92039313847
5.89994953728
5.92603196525
5.89479671747
5.88069780048
5.86255963695
5.88485716763
5.85668067999
5.8459719618
5.83211822677
5.84755546469
5.82306301466
5.8208011449
5.8159936157
0.240500995081
0.239475916907
0.236305465484
0.219380170559
0.236821227915
0.219874374887
0.206819182649
0.191519324451
0.212510745575
0.188315476453
0.174602625773
0.156688824387
0.179496312271
0.152296066191
0.138000944032
0.118554525656
0.14276702883
0.113359695333
0.0982556890448
0.0769539162902
0.102971528602
0.0702333225494
0.0535365591428
0.0085815341915
0.05835953478
0.00885409641601
5.79586035956
5.79660146775
5.7435949771
5.80821500547
5.79309827468
5.79373229715
5.7393766262
5.73030850214
5.72637844085
0.245985423605
0.258645733181
0.241407552074
0.269594892926
5.57504606343
4.63265917094
5.69656188204
5.57006929943
4.62413377772
3.95916213415
1.9416995379
3.95718735853
1.95709962981
0.275249034303
1.27017487189
0.370813971131
0.291096048521
1.29504293898
0.387941414102
4.6326587329
5.7012069204
5.57006926858
4.6241340004
5.69656153133
1.94169974874
3.95718777211
1.95709946302
0.370813729233
0.275247628611
1.29504269058
0.387940924461
0.291094126794
5.74359486142
5.81047654947
5.79585956295
5.79373159192
5.73937589526
5.80821424372
5.79309657674
5.7263783333
0.258644686888
0.245983748457
0.269593276116
0.241406061521
5.99749938037
6.09299564239
5.9938123716
5.94246872216
5.9769569076
5.93742282539
5.8999501375
5.92603201544
5.89479700524
5.86256014312
5.88485760944
5.85668135556
5.83211781928
5.84755578892
5.82306254323
5.81599317908
0.240499262117
0.239475113153
0.219378972363
0.236819397067
0.21987320991
0.191518921479
0.212509738757
0.188315145248
0.15668904643
0.179495973656
0.152296107449
0.118555026035
0.142767051909
0.113359823261
0.0769544142354
0.102971496908
0.0702337938163
0.00858177269204
0.0583601646055
0.00885422741065
6.10152461221
5.99934507144
6.06634746252
5.99346861568
5.98102283617
5.93848712129
5.97519278892
5.93649866129
5.92660851713
5.8943710148
5.92505862579
5.89447322776
5.88417689492
5.8550462666
5.88439352337
5.85685554309
5.84555260779
5.82007704719
5.84776225864
5.82439925241
5.81313534428
5.81704975865
0.240557163141
0.240367582022
0.238220826673
0.221967846469
0.237346701767
0.219780412318
0.214416538506
0.189451246087
0.212504631922
0.188793142726
0.180445356188
0.152745390196
0.179786315961
0.15287385573
0.143091983107
0.113167363932
0.143115962726
0.114064170812
0.102552674711
0.0685772931006
0.103454958254
0.0701336390063
0.0562872209385
0.00819985337362
0.0556773660942
0.00745811874581
5.79119139883
5.79230701982
5.73822219695
5.80832644774
5.79420281288
5.79527989653
5.74262737642
5.72525750939
5.72936978188
0.242570533697
0.271104944773
0.242477069742
0.269865292079
5.56910215132
4.6218733998
5.70036417115
5.57418854678
4.63078253185
3.95393433983
1.95045812866
3.95644819398
1.93548609633
0.29059754828
1.28743248949
0.380990922795
0.305768262443
1.26181001715
0.360231174667
4.62187323014
5.69555148979
5.57418848791
4.63078246012
5.70036378634
1.95045823846
3.95644864522
1.93548603112
0.380990927488
0.290596821629
1.26181013104
0.36023117993
0.305767901332
5.73822171554
5.80614623814
5.79119081015
5.79527957469
5.74262673113
5.80832609552
5.7942018402
5.72936932742
0.271104080577
0.242569004258
0.269864754077
0.242475525403
5.9993457422
6.06634743783
5.99346920429
5.93848826871
5.97519364578
5.93650007991
5.89437272608
5.92506031358
5.8944750172
5.85504721113
5.88439536228
5.85685669712
5.82007726456
5.8477632983
5.82439947005
5.81704940938
0.240555980435
0.240365849397
0.221967477215
0.237344819908
0.21977925702
0.189451573983
0.212503815662
0.188792843413
0.152746240073
0.179786263441
0.152874749599
0.11316933165
0.143117023852
0.114065489132
0.0685781678842
0.103456362587
0.0701344118756
0.00819988936312
0.0556776721246
0.00745822189978
6.06125632505
5.98853152243
6.05322696395
5.9821897561
0.0578440170228
0.00739501119586
0.0598655270238
0.00746124622876
5.98853224951
6.05322687836
5.98219045156
0.0073952034167
0.0598657977439
0.00746140267692
6.05197885788
5.98128277456
6.05114896542
5.98082052519
0.0600754548927
0.00748279313213
0.0601800780846
0.00751454897566
5.98128354153
6.05114953931
5.98082107168
0.00748297885667
0.0601804774604
0.00751451679304
6.05172085591
5.98137907155
6.05495626679
5.9857426422
0.0600746478969
0.00752739991222
0.0592225415622
0.00801232228096
5.98137936533
6.05495636939
5.98574323669
0.00752725733646
0.0592232033621
0.00801257163778
5.99517798964
6.017814373
5.98976213781
6.0793440727
5.99535536474
6.0590834237
5.98956516077
5.94164255156
5.96291474464
5.93897407849
5.96734731282
5.94247132286
5.96413558169
5.94040930934
5.89915910546
5.91775218142
5.8977277206
5.92006194736
5.89928404904
5.91863642888
5.89811689663
5.86104531858
5.87833442744
5.85900089678
5.87949243064
5.86028503963
5.87820130021
5.85825469358
5.82605559967
5.83931969997
5.81844408043
5.84155147033
5.82369526709
5.83769115488
5.81597531312
0.224501575216
0.247319354978
0.230869847243
0.237915392428
0.225640190123
0.248656221218
0.232093285182
0.192943821377
0.21314795005
0.195043956441
0.210284053482
0.193374596475
0.213873218914
0.195336789709
0.157260837374
0.176726456419
0.158226943735
0.175608330234
0.157246808059
0.176754605502
0.158043971424
0.11891883072
0.13940826048
0.120004671365
0.138300454526
0.118625789385
0.139016031794
0.119402723639
0.0755192161058
0.0995461442334
0.0764793553736
0.0979778705411
0.0762222142935
0.0988677763929
0.0771187769431
0.016683809204
0.049090349927
0.0165342298392
0.0539485306453
0.00962362247059
0.0549640299539
0.0103327619852
5.98374179677
6.00743584199
5.98062153544
6.05586667187
5.98488854938
6.05125314022
5.98235712261
5.72669219855
5.75877037878
5.68903463438
5.7705908595
5.72293571638
5.75323312494
5.68473897584
0.0171654840178
0.0523949056961
0.0175579785239
0.0562599230161
0.0104652213999
0.0570414100793
0.0106885007548
5.9806216154
6.01092513966
5.98374211222
6.05125333065
5.98235722144
6.05586653202
5.98488883774
5.68903446176
5.77533344188
5.72669192336
5.75323309586
5.68473885683
5.77059066492
5.72293528379
0.0175579614227
0.0512712291928
0.0171655512089
0.0570413798675
0.0106885751466
0.0562598432805
0.0104650751408
5.9897624511
6.02774641898
5.99517842877
6.05908302211
5.98956532892
6.07934413224
5.99535566332
5.93897458403
5.96651457822
5.94164314909
5.96413595092
5.94040973448
5.96734776822
5.9424717953
5.89772828523
5.91958306517
5.89915958439
5.9186369363
5.89811730371
5.92006246669
5.89928466367
5.85900123198
5.87975233315
5.86104576159
5.87820169106
5.85825511405
5.87949312309
5.86028568974
5.81844371085
5.84303622466
5.82605550703
5.83769102589
5.81597514718
5.84155164763
5.82369507911
0.230869079378
0.237787924989
0.224500563562
0.248655030779
0.232092307172
0.237914506039
0.225638932893
0.195043659778
0.209468216339
0.192943567054
0.213872274825
0.195336406167
0.210283311226
0.19337436394
0.158227175737
0.175437889588
0.157261085543
0.176754479369
0.158044034354
0.175608371781
0.157247059101
0.120004935161
0.138467332243
0.118919240381
0.139016244305
0.119402987864
0.138300848872
0.118626079906
0.076479318917
0.0982380526741
0.0755194184872
0.0988677094347
0.0771186196481
0.0979778314591
0.0762223094316
0.0165342824199
0.04905594946
0.0166840172462
0.0549638675611
0.0103326669844
0.0539487591504
0.00962373284313
6.05300934994
6.08019644458
6.10485989732
6.05203322747
6.09395907702
6.04512890063
6.0600850521
6.0190439719
5.99210139673
5.99762679045
6.0180649363
5.9945326846
6.01412512821
6.02392620508
5.96230993956
5.97573912469
5.97866428861
5.9623642605
5.97707941295
5.96187687863
5.96327058008
5.94936197695
5.93732963402
5.93777354554
5.94936926724
5.93745388381
5.94884365772
5.94991817039
5.91547563809
5.92576489688
5.92636475466
5.91530777355
5.92614865088
5.9153811071
5.91555749198
5.90505924331
5.89499282231
5.89506083491
5.90480469807
5.89512272495
5.90468792602
5.90511267951
5.87592622375
5.88487658106
5.88523068508
5.87533042311
5.88532117201
5.87566802366
5.87570958969
5.86664849028
5.85726200096
5.85736211721
5.86577867092
5.85781485634
5.86600276171
5.86636682082
5.84122741451
5.84813923947
5.84861017644
5.83904935991
5.84923614844
5.84007540567
5.8403297088
5.83376437025
5.82468481193
5.82524219578
5.83060199484
5.82675486581
5.83186377798
5.83247039355
5.81471392973
5.81728661568
5.81874543372
5.81082880077
5.82005654545
5.8116685448
5.81387167432
5.81192936559
5.80812740386
5.8086849915
5.81130597454
0.239984767876
0.239721914326
0.238150495532
0.241307613448
0.238203049813
0.241608601493
0.239811774983
0.22965349027
0.236633129689
0.235104503482
0.232292865849
0.234814742265
0.231550284041
0.230479896556
0.223697390971
0.219011962654
0.218411713989
0.226340071897
0.217511791
0.225221431266
0.224746166398
0.203606583926
0.2117666579
0.211457164598
0.204928101206
0.210836188625
0.204536006984
0.204025561222
0.195743296087
0.188178705978
0.187796296342
0.196654532759
0.187605726921
0.196217076176
0.196062000284
0.170290647161
0.179214625728
0.179168785695
0.170677340777
0.179003541451
0.170671771902
0.170360937996
0.161203132783
0.15237587442
0.152079518464
0.161474895527
0.152082500087
0.161285299654
0.161282779862
0.133125160638
0.142633576936
0.1426345412
0.133233420002
0.142619947593
0.133373971359
0.133059099821
0.123267784722
0.113575651456
0.113217453394
0.123316856625
0.113355970443
0.123242454947
0.123219103861
0.0926240952583
0.102972069569
0.10290652134
0.0924793139696
0.103056602053
0.0927985845381
0.0923580526845
0.0817431421609
0.0707048699182
0.0699029258857
0.0814897438716
0.0704304756662
0.0816175455794
0.0813851859429
0.0442753741248
0.0585937588158
0.0574771794507
0.0444756581987
0.0582736888216
0.0451705893504
0.0432043920719
0.0272738116731
0.00875622173104
0.00858213458441
0.0274836426594
0.00877370384676
0.0275328510541
0.0263552141114
5.79328169925
5.79359646399
5.80215055917
5.78258932282
5.80249943466
5.78306706468
5.79298366799
5.72700447806
5.74525844859
5.74594235302
0.250059775288
0.24193394277
0.244359967317
0.246382764638
0.24449383449
0.246513262754
0.250509207855
5.61577148648
5.69675713283
5.65711299984
5.65437285836
5.65831753421
5.65557095813
5.61328945158
5.43082546193
4.62636379926
5.22827640264
5.22307632967
5.43591491904
3.95784254881
3.28953726761
3.28902378961
1.95403601908
2.62243892751
2.6207953813
0.391226294541
0.355212376315
0.350590493801
0.395264334129
0.468551583432
1.28982770495
0.698253775234
0.699114841189
0.469020842873
5.43082529569
4.62636408927
5.22827669438
5.22307526985
5.43591606353
5.61577165308
5.69675682454
5.65437200712
5.6571126576
5.65557060932
5.65831841114
5.61328938763
3.9578435524
3.28953753279
3.28902367409
1.95403664948
2.6224392059
2.620795584
0.468550781546
1.28982617137
0.69825380794
0.699113070807
0.46902185747
0.391224869844
0.355211256001
0.350587781971
0.395265207407
5.79328046742
5.79359488043
5.78258844313
5.8021480179
5.78306625331
5.80249648203
5.79298296277
5.72700423136
5.74525727775
5.74594138705
0.250058344778
0.241932533167
0.246380943038
0.244358124699
0.246512849628
0.244491681073
0.250507386313
6.05300927437
6.08019657634
6.05203298322
6.10485987805
6.04512868113
6.09396030369
6.06008336844
6.01904408532
5.9921020173
6.01806505127
5.99762721233
6.01412530787
5.99453326294
6.02392551426
5.96231069365
5.97573965828
5.96236479354
5.9786650723
5.96187716456
5.97708000801
5.96327114411
5.94936242931
5.9373300132
5.9493693981
5.9377734636
5.9488439872
5.93745398282
5.94991815101
5.91547571468
5.92576520974
5.91530795947
5.92636470059
5.91538126288
5.92614873666
5.91555723511
5.90505908977
5.89499327737
5.90480479442
5.89506051163
5.90468777812
5.89512217718
5.90511148283
5.87592722542
5.88487738743
5.87533138458
5.88523078364
5.87566909048
5.88532187012
5.8757103117
5.8666492955
5.85726269847
5.86577961579
5.85736289061
5.86600340002
5.85781495715
5.8663674665
5.84122746699
5.84813943707
5.83904920432
5.84861030888
5.84007550783
5.84923665792
5.84032977925
5.83376413148
5.82468396003
5.83060172441
5.82524154707
5.83186390206
5.82675348606
5.83246991979
5.81471273164
5.81728496462
5.81082801026
5.81874535516
5.81166584338
5.8200534456
5.81387439082
5.81192819324
5.80812574306
5.80868013462
5.81131108787
0.239984660616
0.239719580987
0.241308703638
0.238150586727
0.241603860882
0.238199567444
0.239822183656
0.22965208753
0.236632898592
0.232291896585
0.235100882432
0.231549406296
0.234812585209
0.230478455901
0.223696227982
0.219010907749
0.226338837839
0.218410443072
0.225220517129
0.217510794704
0.224744705041
0.203605957565
0.211765655567
0.204927441784
0.211456328586
0.204535503415
0.21083547321
0.20402508721
0.195743072629
0.188178507211
0.196654215938
0.187795660456
0.196216723375
0.187605181558
0.196061581336
0.170290769616
0.179214574262
0.170677276181
0.179168299783
0.17067204857
0.1790035549
0.170360919304
0.16120342784
0.152376123038
0.161474876444
0.152079104415
0.161285345826
0.152082082551
0.161282191908
0.133125474792
0.142633889776
0.133233685874
0.142634248616
0.133374477939
0.142620067191
0.133059026953
0.123268249663
0.113575989832
0.123316903455
0.11321736341
0.123242743482
0.113355978486
0.123219081866
0.0926249516348
0.102972401117
0.0924796341486
0.102906594513
0.0927993464401
0.10305740749
0.0923591725264
0.0817441800809
0.0707053979298
0.0814901786946
0.0699037076961
0.0816180979483
0.0704314112972
0.0813861273618
0.0442763226885
0.0585945890308
0.0444764449401
0.0574781180516
0.0451714854096
0.0582746351181
0.0432053810176
0.0272744306391
0.00875636691451
0.0274840498595
0.00858227738946
0.0275333006929
0.0087738868628
0.0263557335079
5.9991701189
6.06162437403
5.99183380673
6.03291950353
5.99896359843
6.02047241139
5.99183923894
5.943534446
5.96565264907
5.94122370589
5.96829665434
5.94231027703
5.96417584961
5.93959099514
5.89905867257
5.9189186123
5.89799255217
5.91964603166
5.89882148937
5.91793050969
5.89757554564
5.85912496585
5.87772872926
5.8574414921
5.87903815903
5.85987097335
5.87789395951
5.85825743961
5.8215470975
5.83654456108
5.81457800406
5.84123594158
5.82354729375
5.83825244401
5.81709704661
0.227213130503
0.250002199615
0.233232358667
0.238554964739
0.226320996985
0.248944405701
0.232070906737
0.194406170692
0.214829466153
0.196079486142
0.210972508443
0.194019957163
0.214100044575
0.195748000218
0.157708145617
0.17729173407
0.158394725409
0.176175603802
0.157751195542
0.177226893074
0.158557677287
0.118585332938
0.139189413249
0.11938446632
0.138750039578
0.118976777793
0.139587620631
0.120021533998
0.0753404797997
0.0986240637251
0.0766283669787
0.09794917221
0.0746127170675
0.0993632506299
0.0760438535244
0.00916721795022
0.0543173947291
0.0102036027214
0.0472248417079
0.0157048192529
0.0484628651048
0.0162265890142
5.98634464418
6.05250214851
5.98346227508
6.01250413148
5.98504598002
6.00859004432
5.98159855832
5.93848703839
5.95942070566
5.93692146207
5.95866384303
5.93566591424
5.9559893178
5.93388234613
5.89673408013
5.91611963678
5.89596464865
5.91573395252
5.89609727903
5.91456865327
5.89536123995
5.85552180717
5.87570553303
5.85419088338
5.87682308488
5.85678531071
5.87610598849
5.85575543315
5.80483646485
5.8295962465
5.79763145765
5.83577434755
5.80932874911
5.83356475858
5.8030565527
5.72197153116
5.75239889673
5.68385731692
5.77445084527
5.72584012768
5.75805229796
5.68825740094
5.65613465866
5.65340821219
5.61231843586
5.6148280885
5.6957758609
5.65736820849
5.65463265408
0.349178208464
0.387629069608
0.381103887584
0.342882605035
0.242386501218
0.296288892091
0.251588614067
0.267039193826
0.239150794931
0.286871865818
0.245771188923
0.198112103362
0.222593109461
0.199610660308
0.217606778457
0.197462542732
0.220365091782
0.198684445948
0.159197457194
0.179162528367
0.159710818519
0.178310839473
0.159434203864
0.178942121481
0.159956171247
0.120430884378
0.1404979742
0.121061505705
0.140642136487
0.12149651089
0.14113703136
0.122261995936
0.0783287064297
0.100913867723
0.0793070808128
0.10188777513
0.0790865692383
0.102965547046
0.0804831956869
0.0103790491026
0.0568544841499
0.0106498064903
0.0510143341842
0.0170492186075
0.0522564379078
0.0174985082055
5.98346229885
6.05783303801
5.98634488206
6.00858993064
5.9815984184
6.01250402551
5.98504599164
5.93692170573
5.96165239151
5.93848723052
5.9559893063
5.93388228371
5.95866405818
5.93566609469
5.89596472027
5.91717161503
5.89673420117
5.91456868462
5.89536132794
5.91573417036
5.89609734132
5.85419100444
5.87651071348
5.85552188915
5.87610600019
5.85575550649
5.87682325623
5.85678530869
5.79763151037
5.83253114588
5.80483655436
5.83356466735
5.80305671424
5.83577436321
5.80932859097
5.68385706186
5.76958443203
5.72197110703
5.75805206312
5.68825733236
5.77445047696
5.72583979843
3.28521121735
3.95466660717
3.28477189706
0.690422176185
0.461145319251
0.458817786121
1.28153824732
0.689790411177
0.25158865652
0.269895039916
0.242386213582
0.28687171651
0.24577095642
0.267038896368
0.239150384537
0.199610820091
0.219070739534
0.198112096749
0.220364782942
0.198684427391
0.217606516946
0.19746253156
0.15971122029
0.17841299009
0.159198056524
0.17894221266
0.159956404758
0.178311200445
0.159434595429
0.121062019274
0.140007461903
0.120431593995
0.141137258497
0.122262220286
0.140642611877
0.121496967725
0.0793075957274
0.100080345038
0.0783292240168
0.102965744643
0.0804833832206
0.101888193713
0.0790868950425
0.0106499403534
0.0559442824028
0.0103790603062
0.0522564912916
0.0174985698166
0.0510144201834
0.0170492991683
5.99183412968
6.08576721854
5.99917068172
6.02047252254
5.99183953486
6.03291969156
5.99896393162
5.94122437482
5.96959654648
5.94353534426
5.96417632544
5.93959162129
5.96829745874
5.94231128983
5.89799321012
5.92036387197
5.89905965223
5.91793115066
5.89757626516
5.9196472431
5.89882274775
5.85744209286
5.87881561701
5.85912583878
5.87789457649
5.85825809577
5.87903948999
5.85987199562
5.81457803787
5.83985340177
5.8215472162
5.83825284703
5.81709715721
5.84123669462
5.82354751711
5.74401355724
5.72591113618
5.74472707906
0.233231761153
0.2392055711
0.227212135415
0.248943638102
0.23207038098
0.238553614627
0.226319968773
0.196079892979
0.211652692175
0.194406186444
0.214099618704
0.195748075506
0.210971896889
0.194019983964
0.158395968869
0.176329826297
0.157709031806
0.177227500666
0.15855846805
0.176176110851
0.157752099556
0.119385837532
0.138526391886
0.118586623509
0.139588533169
0.120022550813
0.138751195301
0.118977989346
0.0766292473666
0.0975809985077
0.0753412229748
0.0993641808525
0.076044633215
0.0979503320877
0.0746134610861
0.0102036150306
0.0526293093747
0.00916719712855
0.0484631586953
0.0162266861316
0.0472251337691
0.0157049152414
6.06039249996
6.1148574381
6.08955918853
6.07014302958
6.10535811991
6.06567580931
6.05526871599
5.96507675703
5.98374806922
5.96663390481
5.96586946247
5.98039143161
5.9645388969
5.98278459771
5.915478236
5.92701848844
5.91575322811
5.91558736757
5.92637795097
5.91533228722
5.92674906755
5.87435531601
5.88447898699
5.8746311863
5.87475964688
5.8842357288
5.87447923005
5.88453583901
5.83661290802
5.84631662031
5.83752274461
5.83802555847
5.84594293073
5.83710712551
5.84671212112
5.80823382861
5.81540065919
5.81087770822
5.81145881357
5.81382184534
5.80887720506
5.81603651228
0.234150866051
0.236708602785
0.232647898603
0.232358539522
0.238003738842
0.233840354343
0.236520723054
0.206552592001
0.213636485041
0.205869373763
0.205631226024
0.21412890278
0.206319775262
0.213339974293
0.171430740638
0.180199471935
0.171176698744
0.171119135313
0.180356349873
0.171373629749
0.180106243463
0.133399468876
0.142973522972
0.133224987994
0.133287184059
0.143121204029
0.133453921162
0.143003623698
0.0917220294076
0.102397750539
0.0914493549801
0.0916629814873
0.102690724656
0.0918625829139
0.102574818207
0.0421826656284
0.0548169338226
0.040298494615
0.0399557554301
0.0558023522872
0.0413917097279
0.0546917223499
5.96212814964
5.9403258112
5.95939067172
5.93889605363
5.91931431436
5.89932725916
5.91865360449
5.89916595119
5.8803537722
5.8624566971
5.88060388022
5.86315431746
5.84611772685
5.83251031712
5.84737607346
5.83447459514
5.81984707126
5.82384003675
0.240882030169
0.23979464373
0.236980902815
0.219726975781
0.235462296743
0.218556723975
0.207194762564
0.191926117638
0.206423273423
0.191472692831
0.175025488408
0.157148534777
0.174803086174
0.157112519906
0.138540672373
0.119288654313
0.138683135449
0.119656740274
0.0995566190498
0.0799756282087
0.100268717129
0.0812402707969
5.9945346934
6.01280939777
5.98714720623
6.02031854122
5.99098686218
6.00806849892
5.98342529483
5.9401275064
5.9598223992
5.93629872454
5.9619986474
5.93848637551
5.95694214345
5.93440236066
5.8985180455
5.9162688054
5.89682754026
5.91772155369
5.89825554982
5.91517469948
5.89646393325
5.86102346484
5.87798230314
5.85929616475
5.87965162289
5.86183866964
5.87810771579
5.8601398773
5.8269436604
5.84056600598
5.82112160959
5.8449030971
5.8291587114
5.84216729417
5.82373836321
5.79580355219
5.80016855389
5.74519870524
5.81448222365
5.79976754533
5.80355840191
5.75068715385
5.73166246856
5.73702289071
0.246473642046
0.260082486798
0.245194091245
0.256320820698
0.224786885437
0.24682597189
0.230879669301
0.236799165647
0.223661735637
0.244738125968
0.229561031692
0.193383785094
0.213263312797
0.195532967975
0.209016302684
0.19292706799
0.212456558891
0.195201219409
0.157770416938
0.177222609212
0.158883163638
0.175691970736
0.157797870773
0.177076386198
0.159048004796
0.119630575447
0.140263271846
0.121170695611
0.139292141856
0.120129668674
0.140594898485
0.121881423395
0.0759500835746
0.101428212503
0.0779682073747
0.0998436459782
0.0768413872379
0.102462640249
0.0791107096366
0.015144944693
0.0484645604617
0.0157513030897
0.0471641379314
0.0151499131866
0.0490480473153
0.0158306086321
5.97672654718
5.99912951869
5.97231606639
5.99833083274
5.97208178162
5.99353116125
5.96728101481
5.57951021351
4.63256025792
5.70888054167
5.58343177459
4.63510416854
3.95665798055
1.92940892052
3.95622711379
1.91784580718
0.285489439445
1.25237785938
0.336552018402
0.27666980446
1.23673780711
0.325342965031
0.0173144185346
0.0570507826387
0.0180152579266
0.0564429419054
0.0176721591588
0.0589592689776
0.0185078598427
5.97231599391
6.00360907221
5.97672654337
5.99353106427
5.96728089194
5.9983308689
5.97208183367
4.63256009024
5.70309439296
5.58343147903
4.6351041411
5.70888137344
1.92940944988
3.95622744445
1.91784618261
0.336552150546
0.285488989146
1.23673836543
0.325343207368
0.276669318275
0.0180152742806
0.0549170131528
0.0173144130784
0.058959193462
0.0185078094565
0.0564426807863
0.0176720574754
5.98714753013
6.02500954207
5.99453535242
6.00806886597
5.98342562328
6.02031874937
5.99098748597
5.93629927196
5.9646271586
5.94012864566
5.9569425599
5.93440284488
5.96199945992
5.9384872066
5.89682820024
5.91858532632
5.89851944961
5.91517510541
5.89646457348
5.91772257484
5.89825657502
5.85929664064
5.87941006264
5.86102450933
5.87810805658
5.86014027217
5.87965259316
5.86183962961
5.82112174991
5.84342041299
5.82694393964
5.84216751545
5.8237385455
5.84490365317
5.82915900067
5.74519781956
5.8118356931
5.79580255955
5.80355820861
5.75068679319
5.81448202927
5.79976701216
5.73702303928
0.260081982347
0.246472235513
0.256320173277
0.245192802882
0.230879105702
0.237967300751
0.224785921945
0.244737599892
0.229560334936
0.236797918097
0.223660692931
0.195532950894
0.209820639234
0.193383707397
0.212455924421
0.195201108977
0.209015449518
0.192926788571
0.158883761204
0.175897075673
0.157771255113
0.177076547489
0.159048432551
0.175691940988
0.157798283496
0.121171401673
0.139057088646
0.119631670074
0.140595320863
0.121881893417
0.139292664961
0.120130419454
0.0779686657877
0.0990695999867
0.0759506046074
0.102462885793
0.079110820692
0.0998441286315
0.0768417002608
0.0157513044631
0.0468103620598
0.015145117493
0.0490479091686
0.015830540033
0.0471641490003
0.0151500280905
6.08331452913
6.05764483477
6.07954064258
6.04531126347
6.03714071238
6.0488960841
6.03381100462
5.94032696898
5.95939160511
5.93889693687
5.89932871904
5.91865481429
5.89916707585
5.8624579201
5.8806049857
5.86315516928
5.83251076212
5.84737673052
5.83447480008
5.82383980401
0.240879815066
0.239792441577
0.219725639758
0.23546026688
0.218555268671
0.191925661597
0.206422324758
0.191472061951
0.15714908957
0.174802868392
0.157112751428
0.119289660148
0.138683725151
0.119657386319
0.0799763911077
0.100269408929
0.0812407404456
0.0421373810916
0.0401737225987
0.0603019417315
0.0589273633004
0.0412945795083
0.040675785592
0.0619383781304