/*--------------------------------*- C++ -*----------------------------------*\
  =========                 |
  \\      /  F ield         | OpenFOAM: The Open Source CFD Toolbox
   \\    /   O peration     | Website:  https://openfoam.org
    \\  /    A nd           | Version:  7
     \\/     M anipulation  |
\*---------------------------------------------------------------------------*/
FoamFile
{
    version     2.0;
    format      ascii;
    class       surfaceScalarField;
    location    "1";
    object      phi;
}
// * * * * * * * * * * * * * * * * * * * * * * * * * * * * * * * * * * * * * //

dimensions      [0 3 -1 0 0 0 0];

internalField   nonuniform List<scalar> 
14871
(
-2.58474874955e-13
1.03856825686e-12
1.86799200115e-13
2.83107421885e-13
-8.50568663932e-14
-4.23566591687e-12
3.74885471256e-12
5.78097729948e-13
2.01286194852e-13
-5.72984560885e-14
-9.07102122161e-14
-5.95086270276e-14
-1.71852115017e-14
-3.32111016401e-12
3.05111589631e-12
2.11742289581e-13
1.10780637825e-13
-8.27945169825e-15
-1.85321153546e-14
-8.53222497928e-15
-1.39583682542e-14
-2.89875820005e-12
2.8192435635e-12
1.59177084786e-13
-3.45381569707e-14
-7.23418150352e-15
-1.57574068901e-14
-8.17461503763e-15
-3.30034085833e-14
-2.75942660721e-12
2.62106126691e-12
4.84970401491e-13
-2.13662176943e-13
-2.96959749001e-14
-3.71257426955e-14
-3.31185414382e-14
-9.57915944386e-14
1.93849443044e-12
-3.20939477164e-13
-2.15714078723e-12
-1.10711512854e-13
-1.04047297519e-13
-1.20576587132e-13
2.17096561191e-13
2.48446899958e-13
2.68939516475e-13
2.36230053932e-13
6.70935765756e-14
-1.20732920603e-13
1.67989709171e-12
-1.512148903e-12
9.59199689543e-14
6.56213051994e-14
7.32335995806e-14
7.11464980549e-14
-1.38686036845e-13
-1.31394693446e-13
-1.49950574103e-13
2.63344526331e-14
-2.22790004261e-12
2.46946011217e-12
-4.65612666818e-13
1.05156101162e-13
3.00185810364e-14
2.91366651602e-14
3.34074927142e-14
6.52972487478e-15
-2.58829285734e-12
2.66619709646e-12
-1.41098054816e-13
2.37291345891e-14
1.22960372469e-14
7.05863506607e-15
1.3580498365e-14
2.34496960106e-15
-2.74665197314e-12
2.85502347869e-12
-9.73706355905e-14
-3.47376611865e-14
9.25845642474e-15
2.17213771651e-15
9.96135985595e-15
4.2381527608e-15
-3.00762461589e-12
3.18425208212e-12
-1.53094125442e-13
-5.70780450599e-14
1.24621929168e-14
3.7122904403e-15
1.31322884878e-14
7.2683227867e-14
-3.18117684645e-12
-2.36490773474e-13
8.18045019385e-13
9.1196696701e-14
7.52262260325e-14
8.94811700528e-14
5.39247067985e-13
5.39674022692e-13
5.98452587273e-13
5.9366752426e-13
-6.22073188652e-14
4.42987381107e-14
9.75710354109e-13
2.92198240955e-13
-6.00082799389e-13
-3.73811096232e-12
3.5016565362e-12
3.34728278223e-13
5.01808947287e-13
-2.62067228259e-13
-3.20425873905e-12
3.06751974333e-12
1.57780565936e-13
2.41025658043e-13
-1.82724171243e-13
-3.03416769583e-12
3.14852795589e-12
1.20755357185e-13
-5.2391445997e-14
-6.02023668061e-13
-3.44869444041e-12
4.15422045827e-12
4.40223526308e-13
-5.43725876109e-13
-3.33086953561e-12
-5.28776030125e-12
6.83147387173e-12
2.5778868458e-12
-7.90730880675e-13
-5.36080479728e-13
-9.86114343053e-13
6.75443161077e-13
8.51552653241e-13
-4.78291828175e-15
-7.58637224576e-13
2.84835551049e-12
4.03256565018e-12
-3.86903483001e-12
4.69110012303e-13
-9.55112055462e-13
-7.46445595027e-13
-1.02080815582e-12
6.36250514984e-13
-3.49730474479e-12
3.14385493358e-12
-5.28295981267e-13
2.45495277494e-13
1.68120822043e-13
-2.95493457182e-12
2.88226235337e-12
-1.12498322438e-13
1.70497188494e-14
1.22567299929e-13
-2.87863929189e-12
2.93634663057e-12
-7.37168427783e-14
-1.06557795833e-13
2.18331140861e-13
-3.05269195708e-12
3.2626347356e-12
-1.25139458869e-13
-3.03134460515e-13
2.32900890454e-13
-3.28139386961e-12
-1.30364193934e-13
7.84265689693e-13
5.65031411195e-13
5.68468914321e-13
6.31727058207e-13
6.29367875644e-13
-8.04754438615e-18
-1.42261977404e-14
9.6817060488e-13
2.96063640402e-13
9.5257952019e-18
-3.64377740751e-12
3.40241177966e-12
-3.34747170502e-13
5.76103272546e-13
1.44962157587e-17
-3.1276159369e-12
3.02533000455e-12
-1.57782650538e-13
2.60054086683e-13
1.69374242334e-17
-3.03958041501e-12
3.22744076206e-12
-1.20760163316e-13
-6.71171211571e-14
1.84635030264e-17
-3.68929211377e-12
4.7947634702e-12
-4.40216447344e-13
-6.65273372582e-13
1.89291053727e-17
-6.78488713057e-12
1.0281298591e-11
-2.57781136678e-12
-9.18619022801e-13
-3.14926616296e-17
-7.48886344428e-13
-1.64648691125e-11
7.40776320518e-12
3.70277269323e-12
3.97619400513e-12
8.01989180614e-12
-1.32469343605e-12
-1.5182376211e-12
-1.62157400971e-12
-1.42835002294e-12
1.37006960078e-18
-1.09583710497e-11
1.09712400985e-11
-1.2870418836e-14
-3.36318390838e-18
-1.08777695573e-11
1.07741667983e-11
1.03606122184e-13
-1.21528998179e-11
9.54579749847e-19
6.70503629021e-12
3.86909971766e-12
1.57876285541e-12
1.18759757487e-17
-4.3493201828e-12
3.44735528151e-12
5.28367365038e-13
3.73585660279e-13
3.54704973794e-17
-3.0672082882e-12
2.917731682e-12
1.12466212021e-13
3.6974923686e-14
3.73144255843e-17
-2.881949599e-12
2.91543055336e-12
7.36141589567e-14
-1.07132427745e-13
4.78072546177e-17
-3.02217492537e-12
3.24098860707e-12
1.25076210077e-13
-3.43937699027e-13
3.36203908646e-17
-3.29138762147e-12
1.30357966116e-13
7.31536229322e-13
5.75732087222e-13
5.7466297418e-13
6.39170497207e-13
6.39898064154e-13
6.22034793498e-14
-8.64965719606e-14
9.84581159663e-13
2.89711942608e-13
6.00148879171e-13
-3.9512915919e-12
3.68846864335e-12
-5.7809726244e-13
2.40771331821e-13
2.62148362705e-13
-3.35119733927e-12
3.14022869055e-12
-2.11768345087e-13
1.60588631102e-13
1.82803388664e-13
-3.03994684097e-12
3.04321282718e-12
-1.59229271415e-13
-2.68401034536e-14
6.02073197525e-13
-3.13461038251e-12
3.29505406144e-12
-4.84986438248e-13
-2.77530438201e-13
-1.93849721384e-12
-4.59271529774e-13
3.33087311069e-12
-3.26478594225e-12
6.24063290159e-13
5.00675905014e-13
5.40354981102e-13
6.6659098882e-13
5.36093830217e-13
-2.33970428851e-13
-2.90627057378e-13
-1.14963439877e-14
-3.49156870021e-13
-2.84841402504e-12
2.45826995741e-12
1.51215644249e-12
1.63402025843e-13
-2.7204595702e-13
-3.65869889075e-13
-2.98347778332e-13
-6.3622798195e-13
-2.76038122483e-12
2.8123990013e-12
4.6565005101e-13
1.18560154467e-13
-1.68069327054e-13
-2.8181047605e-12
2.83448385605e-12
1.41123304476e-13
1.05669270295e-14
-1.22545585086e-13
-2.88082162992e-12
2.97069807061e-12
9.73509421334e-14
-6.46817977419e-14
-2.18274041494e-13
-3.11409791569e-12
3.29939060987e-12
1.53068212151e-13
-1.20086864842e-13
-2.32866822531e-13
-3.27063909645e-12
2.36521024751e-13
9.31437862601e-13
5.55199352024e-13
5.51061142105e-13
6.13333728612e-13
6.15956462494e-13
2.58474165451e-13
9.88419686421e-13
-2.06533088497e-13
2.09639257223e-13
-3.64738588759e-13
8.50656111706e-14
3.15252317384e-13
-4.9171076503e-14
1.36018115185e-14
-2.33970857629e-13
1.71939641229e-14
2.19195252116e-13
-7.37741062511e-15
4.9660587627e-15
-2.00706283778e-13
1.39702738657e-14
1.93394703229e-13
-5.42454322695e-15
-1.22809337536e-15
-1.86908317682e-13
3.30121998115e-14
1.76017766083e-13
-1.37723000688e-14
-8.3438406439e-15
9.57912932942e-14
-1.36675913516e-13
9.64918168165e-14
-4.08880897141e-14
-1.47154345302e-14
-4.49005721581e-14
-6.70992791151e-14
8.01049813627e-14
2.72704111326e-14
4.62668490795e-15
-1.48673451222e-13
-2.63400680321e-14
1.54807101424e-13
1.40643774467e-14
6.14687853744e-15
-1.77302133471e-13
-6.53532410867e-15
1.77483023009e-13
4.44457347099e-15
1.91539337166e-15
-1.90046160638e-13
-2.34729209654e-15
1.90843397305e-13
2.15802336793e-15
-6.02080885908e-16
-2.08972536154e-13
-4.21642630662e-15
2.13271225922e-13
2.83522028423e-15
-2.91098683022e-15
-2.41964425873e-13
-7.2673864962e-14
2.77697027112e-13
2.65465500837e-14
1.04029257872e-14
-7.21612910293e-13
-1.10909416284e-12
6.13839919006e-12
1.78952392823e-12
6.71771418502e-13
-7.14862511867e-13
-5.31259854405e-13
-5.22853038882e-13
-6.2559475652e-13
3.89301822598e-13
-5.44963486251e-12
4.36034230387e-12
8.65680802553e-13
4.59904689996e-13
-1.80937025672e-13
-1.16162302805e-13
-3.78664688997e-12
3.51565118908e-12
4.17124944041e-13
1.50970085323e-13
6.31879663796e-14
-1.50305893474e-13
-3.34527243366e-12
3.21783532775e-12
2.57014699847e-13
-4.24596668333e-14
3.72114024993e-13
-4.29219315979e-13
-3.08077896831e-12
2.88336678592e-12
5.14098472105e-13
-2.59580998728e-13
5.52740474061e-13
-1.5709928033e-13
-2.51168060083e-12
1.88596688362e-12
-4.16794228312e-13
-1.43327128813e-13
-1.64243474087e-13
-1.46242002032e-13
2.59264922099e-13
2.93979615495e-13
2.90426208352e-13
2.57010832526e-13
-9.48217295942e-14
1.05965228007e-13
-1.28747019036e-12
2.24605371972e-12
-1.55488127127e-12
1.938399514e-13
1.38897688814e-13
1.08961831688e-13
1.43455681819e-13
-1.96175023544e-13
4.17844070614e-13
-2.61899302513e-12
2.87654953494e-12
-6.20084513462e-13
1.40858956585e-13
-4.75083783419e-14
1.38616186616e-13
-3.06022411468e-12
3.17211531251e-12
-2.3884240402e-13
3.58433979179e-14
5.21780145738e-14
8.20249927041e-14
-3.27497780691e-12
3.39949445405e-12
-2.17439986835e-13
-4.12796675776e-14
1.90779257642e-13
-7.76070392579e-14
-3.59831011271e-12
4.04577596503e-12
-4.25040615066e-13
-1.35597455641e-13
-1.2269176479e-13
-6.87603540577e-14
-4.96530039115e-12
5.74191281455e-12
-2.81911914908e-13
-5.86963069875e-14
-5.15069335337e-14
-1.3320998315e-13
-5.98323834932e-14
-1.30539049396e-12
-1.38022134726e-12
6.22171231317e-12
6.71954894058e-13
7.91944633976e-13
4.2337470641e-11
-1.40694994223e-16
2.71713613644e-12
-1.79370635576e-12
-1.48175637484e-12
-1.8938933859e-12
-1.42273677157e-12
-2.02561324523e-12
-1.65489938639e-12
-2.12501416464e-12
-1.59849517092e-12
-7.9208599546e-12
-7.77768306265e-12
-7.77869192121e-12
-7.5812436158e-12
4.53415348589e-11
-1.38009084769e-16
7.89767235772e-13
-4.95155887297e-13
-3.08809919008e-13
-5.16292761279e-13
-2.33869126226e-13
-6.45302773368e-13
-4.87893241569e-13
-6.80819090009e-13
-4.25611866562e-13
4.61935351487e-11
-1.54943248276e-16
-6.93931006839e-13
1.31788839506e-13
3.17090721102e-13
1.3480853383e-13
4.11841529099e-13
-2.96006897479e-13
-2.72840279101e-13
-3.51347753211e-13
-2.33624488296e-13
1.01681691729e-11
5.53898012943e-18
-2.87247990253e-12
1.51344446592e-12
1.89872572618e-12
1.79668288298e-12
2.20174517107e-12
-2.61943422597e-13
-7.33519385611e-13
-2.71369293504e-13
-5.98862138608e-13
1.17926336288e-11
9.94707760587e-12
1.16131516669e-11
1.90963365915e-12
-2.65371677947e-12
9.04850660539e-12
2.78558791952e-12
-9.21803089526e-13
6.32447086496e-14
-5.9866203502e-13
-1.17943338235e-12
7.83250263249e-13
9.83933622535e-13
-5.23142886464e-14
4.92409327367e-11
1.72953652818e-16
3.96063268992e-12
-2.29267616212e-12
-1.66934491258e-12
-3.16561258012e-12
-2.65668772237e-12
2.34739208473e-12
1.43673831893e-12
2.12180076828e-12
1.34449243023e-12
-9.77822465192e-12
-1.60945210473e-11
-9.1636744078e-12
-1.56314367999e-11
4.7171161092e-11
7.98202546125e-17
1.18498648127e-12
-3.84240981052e-13
-2.10329046586e-13
-5.52846461766e-13
-2.88001692576e-13
6.39991768898e-13
5.17345204421e-13
5.9863313679e-13
5.64057008516e-13
4.58073321787e-11
-1.67113953522e-16
1.16638771061e-13
1.02706557361e-14
8.50506022581e-14
-6.03480024613e-14
1.06853310392e-13
2.7053292413e-13
2.80520108623e-13
2.25364473019e-13
3.28841700222e-13
4.34513189084e-11
-1.83300818966e-16
-5.9857752139e-13
2.70286421412e-13
3.88310247241e-13
2.09040569841e-13
4.2113557811e-13
3.65354225875e-13
4.73252075813e-13
3.11888160851e-13
5.15737851992e-13
8.61948549756e-12
-9.43322569765e-17
-1.65352938392e-12
1.14983850313e-12
1.24872435455e-12
1.13396560692e-12
1.3751459698e-12
1.29431518002e-12
1.46675107281e-12
1.29367481635e-12
1.60304231189e-12
8.62080513975e-12
8.66132653921e-12
8.63781151171e-12
7.03073179642e-13
1.16240742353e-12
7.43206092238e-12
-3.95357398984e-13
-2.82728086543e-13
-1.38828835076e-12
-1.98791322874e-17
6.22032338362e-12
-6.71978523232e-13
8.3996337075e-13
4.23374800908e-11
-2.02572760392e-12
2.71717557084e-12
-1.89386541619e-12
-1.42269783845e-12
-1.79372759396e-12
-1.48177016396e-12
-7.777642022e-12
-7.92083399439e-12
-7.58119179919e-12
-7.7786778439e-12
-1.65499228253e-12
-2.12507858931e-12
-1.59857429918e-12
4.53415179053e-11
-6.45458000184e-13
7.89733865176e-13
-5.16275183782e-13
-2.33864128597e-13
-4.95180162207e-13
-3.08799641685e-13
-4.88015722088e-13
-6.80884890933e-13
-4.25729805373e-13
4.61936920555e-11
-2.96138156119e-13
-6.93924679928e-13
1.34833472101e-13
4.11852755076e-13
1.31777826767e-13
3.17118318309e-13
-2.72918829034e-13
-3.51396127092e-13
-2.33684898533e-13
1.17926313267e-11
-2.62040350643e-13
-2.87263575337e-12
1.7967017279e-12
2.2017095068e-12
1.5134398983e-12
1.89875862129e-12
-7.33550692534e-13
-2.71417970963e-13
-5.98902451353e-13
1.01682373737e-11
1.16131883936e-11
9.94709746329e-12
2.15561676139e-12
1.23873173803e-18
1.34763359652e-11
-2.78552706944e-12
-1.05386817611e-12
8.3814029129e-13
-3.14891037686e-17
-6.17630807538e-13
8.52985959667e-12
4.18838944269e-12
4.18570139633e-12
8.52963212798e-12
-1.92352750773e-11
-1.50855415657e-12
-1.69434992113e-12
-1.69819468457e-12
-1.51770400497e-12
3.92946817322e-15
4.43088031531e-18
-1.2673160135e-11
1.26675809224e-11
1.64531354347e-15
-1.7683790162e-13
1.71920262554e-17
-1.26943251299e-11
1.27366997197e-11
1.3444611984e-13
4.9240833379e-11
2.34747616468e-12
3.96052204863e-12
-3.16561151259e-12
-2.65666872591e-12
-2.29264298418e-12
-1.66928747307e-12
-1.60945794232e-11
-9.77815991897e-12
-1.5631518448e-11
-9.16360217483e-12
1.43682876606e-12
2.12188314672e-12
1.34461154087e-12
4.71709141577e-11
6.40031766695e-13
1.1849491049e-12
-5.52791848352e-13
-2.88011642977e-13
-3.84196866026e-13
-2.10340737942e-13
5.17334839174e-13
5.98760167314e-13
5.64067414388e-13
4.58073159918e-11
2.70467564105e-13
1.16696327858e-13
-6.03386729645e-14
1.06830973241e-13
1.02198401194e-14
8.4992863802e-14
2.80416626862e-13
2.25358168364e-13
3.28776056653e-13
4.34514011544e-11
3.65222899341e-13
-5.98584258875e-13
2.09022575013e-13
4.21118192506e-13
2.70212927167e-13
3.8824083427e-13
4.73127344913e-13
3.11826658789e-13
5.15665715751e-13
8.62080786688e-12
1.29418545981e-12
-1.6535777425e-12
1.13394009556e-12
1.37512263114e-12
1.14976499773e-12
1.24867091078e-12
8.61952272587e-12
8.63784486182e-12
8.66139974198e-12
1.46666914073e-12
1.29363884222e-12
1.60303538925e-12
8.636894431e-13
1.22986605665e-17
7.71526652869e-12
3.95387232935e-13
-3.53605001005e-13
-1.12473015884e-12
1.38023950698e-12
5.82273205527e-12
-1.78954212501e-12
7.11300721597e-13
-7.84515638219e-13
-5.37582504409e-12
4.46657786115e-12
-8.65705832136e-13
5.3381721472e-13
-2.99336410853e-13
-3.74310048396e-12
3.61144690804e-12
-4.17179669178e-13
2.02813944801e-13
1.59312121975e-14
-3.49534763122e-12
3.46359705488e-12
-2.57078735504e-13
-2.31685106296e-14
4.16788801773e-13
-3.47107278674e-12
3.60314776019e-12
-5.14132959372e-13
-2.96667818496e-13
8.1051549042e-13
-3.67825707025e-12
-1.88595679507e-12
-5.61994853388e-13
2.65374594508e-12
7.41556138234e-13
5.95022141519e-13
5.92500052145e-13
7.32874348178e-13
4.29798371959e-14
5.9865072407e-13
-2.83664142908e-13
-3.18647909979e-13
-3.931850838e-14
-3.71832582296e-13
-2.17722784216e-12
2.95476164377e-12
1.55497338617e-12
3.86864190972e-13
-1.50701795729e-13
-3.26414779924e-12
3.28528676824e-12
6.20143770623e-13
1.49559320565e-13
-8.04303000746e-16
-3.39271953115e-12
3.3981597348e-12
2.38867846446e-13
2.7143452616e-14
1.21684774702e-13
-3.45013077117e-12
3.53774761259e-12
2.17422942395e-13
-6.13903550339e-14
3.71951676029e-13
-3.6581708735e-12
4.34704195231e-12
4.25019552586e-13
-1.91592930989e-13
2.68206810935e-16
-1.1623668036e-12
-5.31505422712e-12
6.29732695866e-12
2.81888991304e-13
-1.02063126058e-13
-1.00258316645e-13
7.21606618972e-13
-3.89500488442e-13
7.1111294028e-14
9.47049172648e-13
-1.62876913909e-13
-6.53671005742e-13
-3.89271143382e-13
3.06937468663e-12
3.83454245891e-13
-1.16245665669e-13
-1.4777621815e-13
-1.27988475029e-13
-6.13310950965e-13
-6.38719428233e-13
-6.02974980805e-13
-3.06448049083e-14
1.16214251944e-13
-3.0122537144e-12
2.86272345958e-12
9.68885080621e-14
-2.00319558352e-15
-1.85489853985e-14
-1.2375861775e-14
-1.06487536293e-15
1.50377768043e-13
-2.7169052916e-12
2.56265345826e-12
-3.66027195014e-14
2.38355840725e-14
6.41359831499e-15
1.12924328056e-14
3.94028974397e-14
4.29247847589e-13
-2.33952701601e-12
1.90603899119e-12
-1.84438958585e-13
6.56511452203e-14
3.7791608812e-14
4.58336765103e-14
6.68199235091e-14
1.57100927251e-13
-2.64347974194e-13
1.53267565698e-13
-6.92477697992e-14
-4.3592475624e-14
-8.47992025216e-15
-1.0599803527e-13
-9.03566463511e-14
1.46772956095e-13
4.66459870081e-14
1.14196332217e-14
-4.7045300936e-14
-4.17911934586e-13
-1.75532940519e-12
2.18611469315e-12
1.13086011477e-13
-2.506298448e-14
-2.97310355916e-14
-2.41201201583e-14
-2.11215107466e-14
-1.38648016201e-13
-2.4197852901e-12
2.5595875229e-12
3.26465966542e-14
1.03266568479e-15
-8.56279237551e-15
-5.14919058891e-15
-9.57611263668e-15
-8.20145502218e-14
-2.6642586821e-12
2.75652325789e-12
-2.0838855749e-14
1.38649731403e-14
1.48266659379e-15
4.81737152195e-15
1.36090321874e-14
7.76390357496e-14
-2.82526984546e-12
2.7427260273e-12
-1.04342257757e-13
4.3765032476e-14
2.22538237377e-14
2.96195410745e-14
5.17629294156e-14
1.22706786338e-13
-5.15482896473e-13
4.2208359686e-13
-5.44219903918e-14
-2.66413647844e-14
-7.05961259452e-13
-3.39521554219e-13
5.91813337012e-12
1.799084221e-12
6.19082296619e-14
-7.05115734751e-13
-5.14724613868e-13
-5.13790412952e-13
-2.46354096819e-13
4.05468498193e-13
-5.21983383037e-12
4.10634327658e-12
9.20929926099e-13
3.34462263208e-14
-8.44010284465e-14
-1.62747706886e-13
-3.57885123304e-12
3.35238278617e-12
4.7030831975e-13
3.30886245084e-15
2.67122638084e-14
-1.56356942483e-13
-3.20531074423e-12
3.0632402973e-12
2.84445650017e-13
-1.27305244195e-14
1.42135165872e-13
-3.90033138386e-13
-2.90302757432e-12
2.69432284484e-12
4.84193331124e-13
-2.75906291367e-14
2.24808533687e-13
-1.58111170174e-13
-2.3956847363e-12
1.72143099971e-12
-3.32496609398e-14
-1.42268603242e-13
-1.59132773611e-13
-1.42381161008e-13
2.86782589082e-13
2.55367881944e-13
2.87932704104e-13
2.54507545159e-13
-1.43635497496e-13
1.03561165079e-13
-1.2736018959e-12
2.21071244959e-12
-1.31388948086e-12
2.96850664414e-14
1.41409053954e-13
1.03753066599e-13
1.42006822805e-13
-8.66545045582e-14
4.17217349059e-13
-2.52657884092e-12
2.78168601981e-12
-6.11159153525e-13
2.5489130136e-14
-2.54583415353e-14
1.46663879923e-13
-2.98887590812e-12
3.10791404073e-12
-2.55185187085e-13
1.49415160899e-14
2.05594043068e-14
1.05529586978e-13
-3.21603826736e-12
3.32861880063e-12
-2.45077772778e-13
6.40824821567e-15
7.00939762489e-14
-6.32711667826e-14
-3.52533340612e-12
4.01665134579e-12
-4.95482087504e-13
-2.65866163572e-15
-1.52301009852e-13
4.59270441479e-14
-5.0864075195e-12
5.84261025264e-12
-3.41510886752e-13
-1.04092387504e-14
-7.25902007863e-14
-1.52656890586e-13
-7.26588565897e-14
-3.78868721876e-13
-1.48177948229e-12
6.09115904598e-12
7.35150475113e-13
3.43386830632e-14
4.24763812076e-11
-1.07333014717e-16
-2.35625348995e-12
-2.11056415935e-12
-1.60606409541e-12
-2.1054602025e-12
-1.60017075048e-12
-7.60935116796e-12
-7.39004968546e-12
-7.60067412817e-12
-7.38049663193e-12
4.62175396886e-11
-1.79498944333e-16
-7.33613440937e-13
-6.71349551365e-13
-4.37306381228e-13
-6.71610523944e-13
-4.37789196065e-13
4.62419941713e-11
-1.56609195531e-16
4.97045635257e-13
-3.51131703765e-13
-2.5273446849e-13
-3.54915799863e-13
-2.56752950262e-13
9.83355517816e-12
-1.5383610192e-16
2.48901539079e-12
-2.62637613809e-13
-6.22479235814e-13
-2.69625593705e-13
-6.2915472152e-13
1.15032948663e-11
9.82901252135e-12
1.14980966897e-11
-2.29447312576e-12
4.00833536829e-13
9.14314936389e-12
2.60680771101e-12
-2.27610860079e-14
2.47075059663e-14
-5.88213687514e-13
-1.19134071012e-12
7.8693983839e-13
9.80485948358e-13
-1.25590175373e-14
4.87903340273e-11
6.82614869808e-17
-3.40984437603e-12
1.99316556913e-12
1.24682341451e-12
1.99907881829e-12
1.25425999315e-12
-8.72331137385e-12
-1.5226592269e-11
-8.72986563227e-12
-1.52337286613e-11
4.85581125398e-11
4.56865844075e-17
-8.49882442314e-13
5.82757407365e-13
5.4617152445e-13
5.87481112012e-13
5.5068340944e-13
4.74846892269e-11
-1.16876812484e-16
6.36992728188e-14
2.35735628199e-13
3.25298566626e-13
2.3803399082e-13
3.27461342871e-13
4.45425950061e-11
-1.99858472092e-16
6.52467831912e-13
3.27820089758e-13
5.17445064393e-13
3.28180447647e-13
5.17609576469e-13
8.83921802899e-12
-1.48586936336e-16
1.601629306e-12
1.34920119337e-12
1.6591801298e-12
1.34720674289e-12
1.65721160081e-12
8.79870988634e-12
8.83847574476e-12
8.79779948244e-12
1.50082790083e-13
1.40650186337e-12
7.77999729807e-12
-4.93405086453e-13
-3.93702340764e-15
-3.94020082324e-13
6.30928785921e-18
6.10211279406e-12
-7.35173005096e-13
2.70739840579e-14
4.24763163668e-11
-2.11070103415e-12
-2.35633068794e-12
-7.39005140738e-12
-7.60935912127e-12
-7.38048058992e-12
-7.6006972972e-12
-1.60615439522e-12
-2.10553039337e-12
-1.60024153966e-12
4.62175625859e-11
-6.71461801843e-13
-7.33650520502e-13
-4.37387377813e-13
-6.71656386494e-13
-4.37848471613e-13
4.62419889443e-11
-3.51222233256e-13
4.97024712521e-13
-2.52794835421e-13
-3.54956520103e-13
-2.56769159818e-13
1.1503326301e-11
-2.62690382841e-13
2.48905213916e-12
-6.22509121881e-13
-2.69649128029e-13
-6.29158451098e-13
9.83361162711e-12
1.14981224965e-11
9.82905681676e-12
4.47543968923e-13
-3.44806583189e-18
1.36819018452e-11
-2.60678661082e-12
-1.94786081567e-14
3.2447072082e-13
2.13043100688e-17
-2.19096973989e-14
4.19973746833e-12
8.55946159821e-12
4.20025180443e-12
8.55943396021e-12
-1.93982574206e-11
-1.69729522362e-12
-1.51376575566e-12
-1.69623682448e-12
-1.5159293642e-12
-1.29549704105e-15
1.44994284102e-18
-1.27380674155e-11
1.27402896093e-11
-9.28146684812e-16
-3.75810769597e-14
1.37594047106e-17
-1.27781965189e-11
1.27994932771e-11
1.62705594314e-14
4.87903085138e-11
1.99323833511e-12
-3.40970962201e-12
-1.5226644877e-11
-8.72321936427e-12
-1.52338322459e-11
-8.72985805907e-12
1.24692194108e-12
1.9991446306e-12
1.25433789385e-12
4.85579499764e-11
5.82800474901e-13
-8.4986590533e-13
5.46163295748e-13
5.87561618482e-13
5.5070725562e-13
4.74846062452e-11
2.35718948323e-13
6.37013284336e-14
3.25227383477e-13
2.38039285483e-13
3.27431717214e-13
4.4542637371e-11
3.27773319945e-13
6.52532949544e-13
5.17395282385e-13
3.28151417583e-13
5.17595852274e-13
8.79875252353e-12
1.34918935215e-12
1.60167264903e-12
8.83927111699e-12
8.79782437528e-12
8.83850828778e-12
1.6591843125e-12
1.3472148947e-12
1.65723486186e-12
1.77227645176e-13
-1.36193283213e-17
8.13035221346e-12
4.93413931685e-13
-2.32883235025e-15
-3.57942672015e-13
1.48177913793e-12
5.62710102251e-12
-1.79911076711e-12
4.81732786663e-14
-2.70813598795e-13
-5.15601896913e-12
4.20696552735e-12
-9.20934999043e-13
3.01717459217e-14
-1.01142444674e-13
-3.51847378625e-12
3.41345290256e-12
-4.70363409635e-13
5.11435752462e-15
2.18199382805e-14
-3.34765845781e-12
3.26855790319e-12
-2.84487804765e-13
-9.40341923487e-15
1.59422462002e-13
-3.25560661616e-12
3.33947520065e-12
-4.84193740486e-13
-2.1789834317e-14
2.82164076442e-13
-3.46641861148e-12
-1.72139088802e-12
-2.72411848456e-14
2.29450386542e-12
5.9068497266e-13
7.29106987379e-13
5.91578118348e-13
7.27018083022e-13
1.86363994624e-14
5.88210082176e-13
-2.86845068016e-13
-3.10108410993e-13
-9.89300262915e-15
-2.44666244787e-13
-1.84439021736e-12
2.73661352023e-12
1.31401221949e-12
3.17425368306e-14
-1.00513728385e-13
-3.10083853597e-12
3.15133752435e-12
6.11241192802e-13
2.1618541643e-14
-2.10038088892e-14
-3.3247429876e-12
3.31385930908e-12
2.55223490323e-13
1.24475693178e-14
3.2443024673e-14
-3.39245055567e-12
3.43763242553e-12
2.45070272811e-13
5.09520128861e-15
9.85578310605e-14
-3.56196867822e-12
4.31932925124e-12
4.95449488021e-13
-2.16295344347e-15
6.95316100268e-14
-1.40650872397e-12
-5.44744651103e-12
6.44991161972e-12
3.41462644878e-13
-6.95063962639e-15
-2.4567229489e-14
7.05956860523e-13
-3.82342867593e-13
1.42198492195e-14
9.36739672272e-13
-6.15052078858e-13
-1.93419208907e-13
-4.05435387175e-13
2.94526192475e-12
2.39329668677e-14
-5.72216614308e-13
-6.12417303298e-13
-5.70656512581e-13
-6.19285751421e-14
1.62798307625e-13
-2.97915576703e-12
2.87785818414e-12
4.27850405747e-16
2.43829093774e-14
1.56411139546e-13
-2.74492538567e-12
2.57670277029e-12
-1.25714335457e-14
1.1091328879e-13
3.90080037684e-13
-2.32115631827e-12
1.84615066236e-12
-2.59876705637e-14
1.63135579235e-14
1.58117444769e-13
-2.46844136225e-13
1.53202710573e-13
-7.2009283511e-14
-8.77838550281e-15
-9.49485536513e-15
-1.03579523298e-13
-9.98166454237e-14
1.58513262286e-13
4.88397564308e-14
5.54201363012e-15
-7.0431634687e-14
-4.17247433901e-13
-1.75345273341e-12
2.21711245081e-12
2.40193511884e-14
-2.38484227266e-14
-1.46666632107e-13
-2.47922279222e-12
2.63552774325e-12
1.42101038071e-14
1.15357536341e-14
-1.05525865526e-13
-2.74695956645e-12
2.8342134083e-12
6.73627004159e-15
5.46966723724e-14
6.32967451951e-14
-2.88477310632e-12
2.76790714766e-12
-1.12745890751e-15
5.16700907836e-15
1.52306307209e-13
-5.27220604134e-13
4.47269840849e-13
-7.48672827715e-14
-2.64687656777e-15
-6.97101124929e-13
1.91880978934e-13
5.92746709871e-12
1.73177137404e-12
-4.48889463603e-13
-6.9598570155e-13
-5.04918497113e-13
-5.04212218049e-13
1.75987635501e-13
3.96198140178e-13
-5.22003176237e-12
4.13372549631e-12
8.90996106196e-13
-3.76875615815e-13
8.00656889047e-14
-1.63176171987e-13
-3.6154781548e-12
3.38547934163e-12
4.65369058706e-13
-1.52259762457e-13
8.25127736383e-16
-1.59985885082e-13
-3.23502209531e-12
3.09463324991e-12
2.92380967597e-13
7.16863515483e-15
-8.14184181067e-14
-4.07993999806e-13
-2.93894152039e-12
2.73275889815e-12
5.1996624953e-13
1.75628790622e-13
-1.5057995501e-13
-1.6419256533e-13
-2.43187003634e-12
1.79362456647e-12
3.17027532868e-13
-1.46634021083e-13
-1.63367411825e-13
-1.47321630245e-13
2.91001918745e-13
2.560251834e-13
2.88447774421e-13
2.57840700907e-13
8.37361367128e-14
1.07488381513e-13
-1.29225120162e-12
2.23855034742e-12
-1.39422897761e-12
-1.41880876117e-13
1.46125778453e-13
1.07031302312e-13
1.45429972672e-13
3.17170536751e-14
4.2841847984e-13
-2.54881455144e-12
2.79758339297e-12
-6.39912167606e-13
-6.89922074372e-14
-5.5939763122e-15
1.48702491883e-13
-2.9997419509e-12
3.1175456986e-12
-2.61617789593e-13
7.05526323079e-16
-3.38991694046e-14
1.04044799908e-13
-3.22617853471e-12
3.34043965461e-12
-2.41163629913e-13
5.67568795064e-14
-6.34842197764e-14
-6.19171980742e-14
-3.53403069266e-12
4.00502248191e-12
-4.69720092888e-13
1.24129721496e-13
-1.51767178178e-13
-1.34089787594e-14
-5.04158854095e-12
5.82867981067e-12
-3.01750133122e-13
-2.27021690983e-14
-7.34488764278e-14
-1.5202330175e-13
-7.19880190862e-14
3.090478291e-13
-1.41212064768e-12
6.12594224136e-12
6.96242264191e-13
-7.19111686977e-13
4.20301893911e-11
-1.77536926325e-16
-1.72220572144e-12
-2.08126992894e-12
-1.57621018747e-12
-1.97061023796e-12
-1.6183414742e-12
-7.71394456597e-12
-7.52948316853e-12
-7.83952507244e-12
-7.70535906996e-12
-1.42504378853e-12
-1.82836376736e-12
-1.37623952815e-12
4.50950256303e-11
-2.0665245809e-16
-4.82573713441e-13
-6.83158100251e-13
-4.35924376845e-13
-6.50221808591e-13
-5.00416581886e-13
-3.08509067915e-13
-5.03685989967e-13
-2.3392260072e-13
4.59973467756e-11
-1.6916480318e-16
1.02500008835e-13
-3.71917224974e-13
-2.62008554474e-13
-3.28320302357e-13
-3.13037939886e-13
2.77797138659e-13
1.11627763567e-13
3.78087221584e-13
9.92355182417e-12
-1.1065856243e-16
1.45019967253e-12
-3.12420645165e-13
-6.47851380461e-13
-3.26707297308e-13
-8.05689153135e-13
1.82966043562e-12
1.74438951994e-12
2.14156570348e-12
1.1591506364e-11
1.01373603168e-11
1.17606726772e-11
-2.40112226706e-12
-3.56126628936e-13
9.14359298625e-12
2.66397029411e-12
8.73332142437e-13
-2.14434731846e-14
-5.90385023147e-13
-1.18777195399e-12
7.86459355669e-13
9.82137651297e-13
3.10246790125e-14
4.90088819642e-11
1.96478268891e-16
-1.57294160692e-12
2.17567159859e-12
1.37677128128e-12
2.38825367323e-12
1.4859549929e-12
-9.1459661994e-12
-1.58625559373e-11
-9.44309322848e-12
-1.64132415335e-11
-1.45924573842e-12
-3.18085872175e-12
-2.76754391239e-12
4.70203634557e-11
5.95152142715e-17
-3.50998020191e-13
6.32590794194e-13
5.90267161512e-13
6.86544160769e-13
5.57609774038e-13
-1.70003203504e-13
-5.38514933344e-13
-2.68939627356e-13
4.56841266949e-11
-1.09030065181e-16
3.35594911106e-14
2.43254578048e-13
3.42217406812e-13
2.94428777053e-13
3.00247554826e-13
1.04953747972e-13
-4.12662780905e-14
1.2251814443e-13
4.33481605254e-11
-1.26417598917e-16
2.76020745161e-13
3.18959929583e-13
5.18290774564e-13
3.73348343789e-13
4.76545389399e-13
3.88674389365e-13
2.14938161546e-13
4.21763092639e-13
8.6546530301e-12
-9.92254883062e-17
1.13391474372e-12
1.28563037129e-12
1.58658017666e-12
1.27796350422e-12
1.44153252739e-12
8.6339065451e-12
8.61093149804e-12
8.61345657134e-12
1.22849378194e-12
1.12357204216e-12
1.35920724939e-12
-1.40963943328e-13
1.31857717671e-12
7.67011884287e-12
-4.6069319711e-13
2.67522728546e-13
3.40681358881e-13
-4.0477969894e-18
6.14339780447e-12
-6.96270100625e-13
-7.87805014942e-13
4.20301696389e-11
-2.08130548225e-12
-1.82834832574e-12
-7.52946556562e-12
-7.71393296515e-12
-7.70534695903e-12
-7.83951623483e-12
-1.57626872534e-12
-1.97062627452e-12
-1.61838841545e-12
-1.37623649551e-12
-1.72223935768e-12
-1.42508582862e-12
4.50950631114e-11
-6.83226181375e-13
-5.03675419275e-13
-4.35994002931e-13
-6.50250225541e-13
-5.00467903181e-13
-2.33918166109e-13
-4.82598355707e-13
-3.0856004329e-13
4.59973984793e-11
-3.71980341582e-13
1.11649235214e-13
-2.62037489765e-13
-3.28352562398e-13
-3.13056518317e-13
3.78090005134e-13
1.02481859038e-13
2.77787238183e-13
1.15915495073e-11
-3.12447735195e-13
1.74442528488e-12
-6.47843980955e-13
-3.26682505185e-13
-8.05654174117e-13
2.1415860611e-12
1.45025802835e-12
1.82971422892e-12
9.92361623458e-12
1.17607143524e-11
1.01374356067e-11
-4.10023098495e-13
-1.98128750907e-17
1.36501915569e-11
-2.6639517249e-12
1.01531055474e-12
-2.81544101027e-13
7.13413177991e-18