/*--------------------------------*- C++ -*----------------------------------*\
  =========                 |
  \\      /  F ield         | OpenFOAM: The Open Source CFD Toolbox
   \\    /   O peration     | Website:  https://openfoam.org
    \\  /    A nd           | Version:  7
     \\/     M anipulation  |
\*---------------------------------------------------------------------------*/
FoamFile
{
    version     2.0;
    format      ascii;
    class       volVectorField;
    location    "1";
    object      U;
}
// * * * * * * * * * * * * * * * * * * * * * * * * * * * * * * * * * * * * * //

dimensions      [0 1 -1 0 0 0 0];

internalField   nonuniform List<vector> 
5218
(
(0.0274198719415 0.00623425873543 0.00365504033598)
(0.0281714448007 0.00408898968861 0.00065936344987)
(0.0223000333599 0.00111493028125 0.000359454722926)
(0.0200129570571 0.000875619028259 -0.000112036788379)
(0.0188317115663 0.00262716344512 -0.000693099219659)
(0.0140161797383 0.00974707305123 -0.00104491922677)
(0.00960614936796 -0.00718931254543 0.00031229757334)
(0.0164407605418 -0.00245929185824 0.000341116133037)
(0.0183907148383 -0.000768348201609 7.69749975696e-05)
(0.0196058640814 -0.000506186322548 -0.000112685583849)
(0.0216715684451 -0.000773374457798 -0.000185155609573)
(0.025808755303 -0.00318254012314 0.00259047589571)
(0.0267020038688 0.00149108509057 0.0037732145147)
(0.025552623251 0.00327183381427 0.00158024519608)
(0.0219486167152 0.00146946836775 0.000754947019913)
(0.0216394542482 0.00106217849408 -0.000164064688361)
(0.0266102178632 0.00364786519523 -0.00170272041589)
(0.0435041481675 0.0209517646243 -0.00255466899639)
(0.0157190517146 0.0198034625407 -6.15315970557e-05)
(0.0368758882475 -0.0231959447521 0.00143138696062)
(0.0232440588743 -0.00407591273688 0.000768787842678)
(0.0204301892382 -0.000982167005684 5.33925406073e-05)
(0.0203524507286 -0.000686994499477 -0.000333694150108)
(0.0221036434228 -0.00120214709906 -0.00094928949477)
(0.0271783559932 -0.00127142776612 0.00247043679637)
(0.0266068490538 -0.000199054298754 0.00382241552913)
(0.024869064297 -0.00117164790134 0.00181295566957)
(0.0215330268369 -0.000552290546472 0.000814539539482)
(0.0219346350208 -0.000422719943823 -0.000210179112041)
(0.0296942156161 -0.00154082219911 -0.00208335598379)
(0.0597316552134 -0.00902240603682 -0.00296784607001)
(0.208937696925 -0.0413482176058 -0.0024382346095)
(0.307014556069 -1.91809746633e-08 -0.000168173472789)
(0.289414533054 4.70845747946e-08 0.0013537866632)
(0.0679361922584 0.013856772392 0.00494402052088)
(0.0272883641251 0.00184924421172 0.00116991298877)
(0.0209472898957 0.000393507595333 0.000115789892596)
(0.0202908305333 0.000257518955859 -0.000335493655308)
(0.021921072362 0.000437599409878 -0.00107706805748)
(0.0274439277841 0.000456135201409 0.00230433912093)
(0.0268130164737 -0.00208181158395 0.00374155908735)
(0.0269647750033 -0.00417093280532 0.000786260641193)
(0.0227169685367 -0.00167594981727 0.000518965567835)
(0.0212910440897 -0.00121007508467 -8.67114311613e-05)
(0.0225038388335 -0.00384418437845 -0.000896636729473)
(0.0267027403778 -0.0183224505633 -0.00148983203304)
(0.0029778054838 -0.0111311311175 -0.000150218894705)
(0.0176262567939 0.0153796088041 0.000530060230172)
(0.0195047307914 0.0038944748637 0.000383040499047)
(0.0197840601579 0.00109366099095 3.41393027107e-05)
(0.0204803189518 0.000777561759162 -0.000208971961935)
(0.0224472098355 0.00131215692831 -0.000387972947958)
(0.0267433629329 0.00166125352212 0.00293402927211)
(0.0266440370832 -0.00667803867232 0.00274170549303)
(0.00951258379522 -0.00285105404468 0.000176034489783)
(0.00634431419969 -0.00126034847377 6.39044888791e-05)
(0.00551742145147 -0.00106826023185 -1.57989322424e-05)
(0.005080966546 -0.00125772994059 -0.00010734237339)
(0.00326434836378 -0.00190865741475 -0.000189312076257)
(0.00176540965198 0.000597649111865 5.95216761131e-05)
(0.00424872773704 -0.000292921472085 7.9078761725e-05)
(0.00496699219072 -0.00068842046642 2.46412768895e-05)
(0.00533245381124 -0.000806174036232 -7.74568923477e-06)
(0.00591141267572 -0.000870644339666 -3.74494552252e-05)
(0.00727526033351 -0.000266829927991 0.000133832220541)
(0.0380063138809 0.0211369477701 0.00631733910363)
(0.0345167991845 0.00141615800664 0.00385837743589)
(0.0255487949864 0.00186550566908 0.0011788041088)
(0.0229707700961 0.00145252953498 -0.000375742651997)
(0.0208745382496 0.0034004292353 -0.00224613244078)
(0.0160854565817 0.010588458631 -0.00339337144777)
(0.0125840258743 -0.00854350785963 0.00101882552588)
(0.0192343989603 -0.00371698701764 0.00119817602727)
(0.0218131879952 -0.00134573649214 0.000296225252698)
(0.0233606529134 -0.00105509217715 -0.000332037645665)
(0.0267543012719 -0.00114635099008 -0.00116036518302)
(0.0352829818113 0.0010473413726 3.52241672173e-05)
(0.0402020482422 0.0071823867345 0.00744466626445)
(0.0858927957381 0.0129686369868 0.0141463523406)
(0.0774752895442 0.00391015923929 0.00349080383519)
(0.0810566073078 0.00189687096159 -0.00239027159318)
(0.109212186993 0.00259647948173 -0.0159097435733)
(0.0536908900725 0.0195535669559 -0.0101009918591)
(0.0191422846982 0.0226211516094 -0.00161782595968)
(0.124918727164 -0.0123333640516 0.0214373981464)
(0.0854114556646 -0.0039160985695 0.00358592246784)
(0.0813561816118 -0.00188557485909 -0.000164145814283)
(0.079028634434 -0.00295125536222 -0.00286335657035)
(0.094235436014 -0.010383045284 -0.0105858511488)
(0.0428659654337 -0.00556841762173 -0.00352061177213)
(0.0402368512079 -0.00235182765849 0.00790962877274)
(0.0858925880508 -0.0129694524243 0.0141463344472)
(0.0774752831965 -0.00391116352627 0.00349076118318)
(0.0810567330978 -0.00189766853907 -0.00239035348335)
(0.109212519775 -0.00259682222171 -0.0159098954084)
(0.0744678906184 -0.00974934910797 -0.0114487588171)
(0.237926820164 -0.0460835141803 -0.00509519884178)
(0.354770374746 -6.20323253232e-08 -3.19781648079e-05)
(0.337264474623 -2.40688367689e-07 0.00435797630044)
(0.124918647425 0.0123342769195 0.0214371240937)
(0.0854111505387 0.00391651440256 0.00358576319583)
(0.0813559513809 0.00188488446441 -0.000163895828404)
(0.079028693991 0.00295029052518 -0.00286306765103)
(0.094235743992 0.0103824671096 -0.0105856071538)
(0.0428727385157 0.00138381227002 -0.0043468994972)
(0.0391058222243 -0.0112381717453 0.0065153918571)
(0.0346247528144 -0.0127236948139 0.00469254685516)
(0.0257255459659 -0.00701257194952 0.00178748298511)
(0.0243552820355 -0.00541843576455 -0.000138439157781)
(0.0247596434678 -0.0064004256879 -0.00253877670974)
(0.0305133409332 -0.0155422059712 -0.00480378616302)
(0.00355326737459 -0.012257363473 -0.00115217683737)
(0.018938924412 0.0057383946825 0.00272773948633)
(0.0229230209862 -0.000571532674111 0.0010659840866)
(0.0237680774308 -0.00254820929787 9.78975749586e-05)
(0.0244575743432 -0.00236426310238 -0.000652931431545)
(0.0280182448903 -9.98868766303e-05 -0.00200960129217)
(0.0381081337847 0.00496532379593 -0.000358159664956)
(0.0323702693332 -0.0121095430385 0.00239915135205)
(0.0267224800301 0.00119397672719 0.00519139580918)
(0.0205606023364 -0.00036611421216 0.00078960209277)
(0.018478423236 -0.00047369080701 -0.00037707958465)
(0.015007735211 -0.00135213074087 -0.00186362933937)
(0.00511950814595 -0.00291726417573 -0.00157412143213)
(0.00325754711954 0.000935496906702 0.000278593748633)
(0.0139315799646 0.00131642259395 0.00120035896935)
(0.0174278048455 0.000436741251034 0.000328478994069)
(0.01897273679 0.000258345833199 -0.000150444887179)
(0.0197013086895 -0.000244562962611 -0.00111242322415)
(0.0111715874294 -0.00338103532201 -0.00111962015715)
(0.0375170509835 0.0208061544166 0.00140497882534)
(0.0328179400023 0.00157180378635 0.000979295122149)
(0.0242511841013 0.00221254762367 0.000306985010668)
(0.0219399849599 0.00155646302228 -0.000138049648987)
(0.0195907810633 0.00311638232239 -0.000594040267626)
(0.0155837667728 0.00996757072562 -0.000903203679481)
(0.0123121451005 -0.00768117462624 0.000606621973782)
(0.0185789270126 -0.00365052959152 0.00039250272143)
(0.021338764821 -0.00142043964503 0.000141399501688)
(0.022906299738 -0.00123102979375 -4.95290463188e-05)
(0.0263969466317 -0.00144615546887 -0.000254634232596)
(0.0360176324789 0.00140522468557 -0.00019717699012)
(0.0401301681631 0.00775902068861 0.00144618933946)
(0.0849459076063 0.0132212266505 0.000323474212356)
(0.0784125252831 0.00391861067549 5.03944400071e-05)
(0.0819145480683 0.00203650625821 -0.000176692002315)
(0.108757270981 0.00250486776109 -0.00034371514196)
(0.0519728441462 0.0176006305157 -0.00148258119778)
(0.0191451445919 0.022412672391 -0.000521731328837)
(0.1206204899 -0.0112254436637 0.000493694403303)
(0.0862745456763 -0.00387265260351 0.000300734393936)
(0.0840374515458 -0.00194571105183 0.000161841834251)
(0.0815232267969 -0.00303743936224 4.83630991863e-05)
(0.097378735214 -0.0112496901447 -4.65201917876e-05)
(0.043578965878 -0.00679032451042 -0.000539069347185)
(0.0402087678542 -0.00257309909439 0.00147379253649)
(0.0849458803472 -0.0132220228126 0.000323440363009)
(0.0784124872062 -0.00391942743344 5.03312165492e-05)
(0.0819145633829 -0.00203713005285 -0.000176705100796)
(0.108757527633 -0.00250531862036 -0.000343821898292)
(0.0727147237611 -0.00912374111103 -0.00163457903795)
(0.239023589189 -0.0461067437911 -0.00121233146311)
(0.356696998255 -2.0299200685e-08 5.14290499071e-06)
(0.339225245999 -1.92631665903e-07 0.000753922909476)
(0.120620563708 0.0112260837751 0.000493716016544)
(0.0862743805366 0.00387296695828 0.000300715691925)
(0.0840372366939 0.001945317599 0.000161895332569)
(0.0815231922078 0.00303685503262 4.84154916259e-05)
(0.0973790244933 0.0112494693509 -4.65246874439e-05)
(0.0435773721723 0.00172699642832 -0.000628447671342)
(0.0387870595187 -0.0116278362657 0.00142137119203)
(0.032945171955 -0.012000389651 0.0010534331971)
(0.0242485538231 -0.00675886741074 0.000371897763238)
(0.0231559102057 -0.0053900778542 -0.000109281813403)
(0.0230826558124 -0.00634710536328 -0.000634243042139)
(0.0296620173358 -0.0137639619112 -0.00108291841299)
(0.00359311325384 -0.0119990575108 -0.000399411629133)
(0.0167130252669 0.0049295989855 0.000967430735663)
(0.0218826162111 -0.00041625271072 0.000427462945098)
(0.0232351080384 -0.00241600148739 0.000117079823725)
(0.0239052904342 -0.00228354728456 -9.57173818452e-05)
(0.0275845427531 5.78856985412e-05 -0.000352522745764)
(0.0390437641986 0.00600954944012 -0.000267687873794)
(0.0322778370394 -0.0115930022064 0.000543017523704)
(0.0255426038241 0.00127460804568 0.000760731672283)
(0.0204980468324 -0.000526017241217 0.00021824767133)
(0.018625699049 -0.000505329641683 -0.000129340162758)
(0.0147358559878 -0.0012602586215 -0.000479153352903)
(0.00474092625151 -0.00309392495027 -0.00035128720759)
(0.00354937065727 0.000946265058029 0.000210516165933)
(0.0140397010417 0.00134803017107 0.000330578450564)
(0.0179016268741 0.000473846042191 0.000133204842868)
(0.0195341054116 0.000340929719391 -1.67981925738e-05)
(0.0200096756565 -0.000204497176784 -0.00019538445948)
(0.011430337666 -0.00406658359988 -0.000109394397996)
(0.0375239192208 0.020304912148 -0.00224246648776)
(0.0329109404198 0.00150569718244 -0.00193499885559)
(0.0244946933752 0.00219736850643 -0.000813143966474)
(0.0221537711205 0.00159712140636 2.22014580574e-05)
(0.0198509951022 0.00330570887612 0.000899665133044)
(0.0157623524455 0.0103542703503 0.00163662619813)
(0.0124769930399 -0.00806347267107 -0.000789659544905)
(0.0187123928055 -0.00379050948618 -0.000352482413893)
(0.0214105067732 -0.00144999449248 2.20482592235e-05)
(0.0229831636626 -0.0012121252029 0.000317296171189)
(0.026386686111 -0.00136366810769 0.000656648794454)
(0.0358204282759 0.0015455380647 -3.25261634418e-05)
(0.0402001573783 0.00737903461106 -0.00359826749987)
(0.0851478535622 0.0126821296866 -0.0134077601687)
(0.0769841375575 0.00395211637946 -0.00339943859209)
(0.0806650467477 0.00210442062665 0.00199149791637)
(0.108846559468 0.00297222021435 0.015139542456)
(0.0518772715069 0.0181947088777 0.00430310556682)
(0.0189032439246 0.0224686940715 0.000734554128428)
(0.12579445112 -0.0127139738358 -0.0205518408282)
(0.0850715110038 -0.00417052750214 -0.00307620628293)
(0.0811164288818 -0.00201343820246 0.000464913181886)
(0.0788283644997 -0.00298287115513 0.00293536336623)
(0.0940857776118 -0.0102688058616 0.0104314787664)
(0.0429751736351 -0.00635930402587 0.00142970335155)
(0.0402980428837 -0.00243690242199 -0.00394941259552)
(0.0851477550997 -0.0126826951679 -0.0134079189553)
(0.0769841526276 -0.00395283708328 -0.00339957024711)
(0.0806651258929 -0.00210495285683 0.00199147385211)
(0.108846967975 -0.00297234873103 0.0151398468538)
(0.0726366978665 -0.00932376172567 0.00498866763945)
(0.238566284348 -0.0460849512694 0.00300946072101)
(0.356306246022 -2.27271709922e-07 -0.000282118548847)
(0.339248826597 -2.96188497507e-07 -0.00181076290616)
(0.125794400778 0.0127147718377 -0.020551435694)
(0.0850712350881 0.00417100541107 -0.00307591007357)
(0.0811162661906 0.00201321862196 0.00046497894465)
(0.0788283687376 0.00298233622862 0.00293539632173)
(0.0940858329597 0.0102684637611 0.0104315602406)
(0.0429801216542 0.00161231701065 0.00181329937629)
(0.0388364324564 -0.0111429219355 -0.00294018897764)
(0.0331796133145 -0.0114882548586 -0.00236037795413)
(0.0245641774939 -0.00669719174566 -0.000999787558166)
(0.0234393491213 -0.00559911857423 6.03609388229e-06)
(0.0234879342171 -0.00713187365279 0.00123599914643)
(0.0299648061688 -0.0143756932446 0.00251993498223)
(0.00358746746216 -0.01205149319 0.000551475541134)
(0.0171453334531 0.00608598906245 -0.00162278395409)
(0.0221674076294 -0.00011299312917 -0.000535415088839)
(0.0233602276716 -0.00237888373993 1.37369761539e-05)
(0.0240300321578 -0.00240690675223 0.000397392878242)
(0.0276553417571 -0.000385820771912 0.000961655261591)
(0.0387838567325 0.00556775814737 0.000415377741249)
(0.0322643894472 -0.0113159927008 -0.000381425513873)
(0.0255514447445 0.00124536264708 -0.00182613293265)
(0.0207161856243 -0.000527335684095 -0.000660627909478)
(0.0187835839056 -0.000516947980566 1.64165334332e-05)
(0.0148904367275 -0.00131809068954 0.000628898001568)
(0.00468072600245 -0.00328180840684 0.000333448576668)
(0.00357055360995 0.00104648706979 -0.000161674644959)
(0.0141028807496 0.00138415714473 -0.000251223116511)
(0.0179457011347 0.000480487973829 1.09345381723e-05)
(0.0195941976078 0.000336182021378 0.000235933955429)
(0.0200548793721 -0.000200092300298 0.000602070413058)
(0.0113075003396 -0.00406825118644 8.25771463528e-05)
(0.0362060213492 0.0165628228668 -0.0126658030598)
(0.0337887294661 0.00257956507451 -0.00232387930341)
(0.0260650881646 0.00161770051271 -0.000927488982306)
(0.0233477444203 0.00144756989649 0.000213346194499)
(0.0214315387008 0.00407451051819 0.00174724608676)
(0.0164123372851 0.0122935186101 0.00272138147149)
(0.0124662857101 -0.00903417715164 -0.000464667705871)
(0.0193291242263 -0.00387637003306 -0.000816517670922)
(0.0218558277019 -0.00130084627029 -0.00011221795352)
(0.0234844790755 -0.000861981324385 0.000339641365152)
(0.0265822639512 -0.00079040380303 0.000740772893333)
(0.0360366866752 0.00272330314923 -0.00391297609863)
(0.0367509414138 0.00520139452698 -0.0136130483484)
(0.0328800339859 0.00492738135183 -0.0106814095106)
(0.0254299626826 0.00218148626736 -0.00610826163182)
(0.0252472295947 0.00132850219824 -0.00387064074569)
(0.0305586514849 0.00342675347879 -0.000602786147536)
(0.0511061309558 0.0231715420127 0.00924023829304)
(0.0182525744285 0.022887217382 0.00155839283288)
(0.0400765614049 -0.0253474690912 -0.0106334160302)
(0.0265802104439 -0.00450968211087 -0.00550088691732)
(0.0245139749458 -0.00127990858193 -0.00383005755655)
(0.0244690045677 -0.00106013136885 -0.00285713364007)
(0.0273614124235 -0.00225480377871 -0.000705209139199)
(0.0380550548464 -0.00202404040852 -0.000729055267824)
(0.0366073976547 -0.00174865606256 -0.0142006326755)
(0.0319869954055 -0.00160882249861 -0.00991426647655)
(0.0248345478803 -0.000749683209683 -0.00569002576856)
(0.025494405057 -0.000515383466271 -0.00346895677309)
(0.0340109836061 -0.00154389167503 0.000898880978753)
(0.0702048214446 -0.010144876165 0.0105965836843)
(0.237539889172 -0.0463652432013 0.00556878923904)
(0.353431026435 -4.02039476611e-08 5.91407686173e-05)
(0.333697846802 9.03225555517e-08 -0.00598222609276)
(0.0810769586447 0.0164399888853 -0.0245877247779)
(0.0307433531349 0.00203583489161 -0.00734803087688)
(0.0250355088085 0.000466652289006 -0.00422204742191)
(0.0243458609371 0.000337581073073 -0.00307765288244)
(0.0270087962861 0.000673353554788 -0.000988792377496)
(0.0386148176289 0.000688251858239 5.56342163986e-05)
(0.0368922855776 -0.00843220261737 -0.012459608967)
(0.0323906001111 -0.00533983620333 -0.00317641691909)
(0.0253371721637 -0.00247371969017 -0.00152761136579)
(0.0237273389227 -0.00163641488173 4.01443821051e-05)
(0.0248424002212 -0.00405462985185 0.00217352347636)
(0.0307818164968 -0.0203922505971 0.00426500694477)
(0.00348781646401 -0.0125017955161 0.00105890661502)
(0.0170125595996 0.0156588137898 -0.00178048171175)
(0.0219430695051 0.00459024816043 -0.000765559820084)
(0.022550096475 0.00155732257158 7.37175240115e-05)
(0.0234111223526 0.00125872715769 0.000682268645379)
(0.0266594399496 0.00229479795827 0.00162675369885)
(0.0367163348546 0.00135685883634 -0.00377121438283)
(0.0333043377005 -0.0100046384302 -0.00262040934298)
(0.0278603977086 -0.000311547263437 -0.00423263093517)
(0.021319461552 -0.000406370144583 -0.000648986014321)
(0.0187382079924 -0.000474037303595 0.000227666989536)
(0.0152558260458 -0.00147123224888 0.00143115428696)
(0.0048913404164 -0.00360735221518 0.000928405576378)
(0.0034776096903 0.00110790474 -0.000181328206975)
(0.0139616845907 0.00132795516532 -0.000853726897625)
(0.0174545169283 0.000418600251951 -0.000165944337835)
(0.0191103443117 0.000233533045383 0.000174794134473)
(0.0208475793221 -9.03659029809e-06 0.00088304992109)
(0.0257009578134 -0.00205860355683 0.000367396966441)
(0.0333042759228 0.0100046983234 -0.00262038985796)
(0.0384478715206 0.00113177513675 -0.00479695499789)
(0.0266073536386 0.00585721078565 -0.00293317979705)
(0.0115952616149 0.000769751847801 -0.000478835192653)
(0.027860558533 0.000311521855893 -0.00423271223593)
(0.0234732374766 0.000414461061931 -0.0016120382833)
(0.0087390946525 0.00223699988915 -0.000337229915919)
(0.00643997998556 -0.000830936204759 -2.57478731672e-05)
(0.0213193482516 0.000406406937488 -0.000649289675566)
(0.0198955638429 0.000396128514754 -0.00016231666891)
(0.00609788299783 0.00118872731295 -7.36402986578e-05)
(0.00549841351336 -0.000751748844453 5.40490948034e-05)
(0.018738160963 0.000474119758829 0.000227908947183)
(0.0174025999592 0.000758880331881 0.00070161429063)
(0.00536553723768 0.00108872145687 5.35021198871e-06)
(0.00502280127325 -0.000474479920568 0.000160226532641)
(0.0152553681574 0.0014712764599 0.00143126588737)
(0.0132140485292 0.00290610713 0.00269522872874)
(0.00485964548418 0.00139393890031 0.000160902906774)
(0.00402643792985 0.000484460412204 0.000447007871089)
(0.00489128914633 0.00360746463699 0.000928516351951)
(0.00337205660782 0.00218778947088 0.000356383118869)
(0.00207152928887 -0.00191146790767 -2.79667846165e-05)
(0.00117767620228 -0.000854977342104 6.4574322454e-05)
(0.00347770466615 -0.00110753031353 -0.000180893872724)
(0.0119836240516 -0.00245493418894 -0.0016938578562)
(0.00197982844804 -0.000674224901177 -5.18445736828e-05)
(0.00381170806732 -0.00146261445961 -0.000237702371766)
(0.0139620831061 -0.00132794936626 -0.000853614116393)
(0.0161448881613 -0.000713867209365 -0.000413496787777)
(0.00411956668335 0.000118761415338 -0.000205089165564)
(0.00472923452197 -0.00107271232233 -3.76973621855e-05)
(0.0174548301456 -0.000418605994775 -0.000165816228851)
(0.018342433691 -0.000286656507923 1.24650029651e-05)
(0.00486151114576 0.000624142186771 -7.76398534923e-05)
(0.00515635575842 -0.000969384785583 2.19971431142e-05)
(0.0191104837961 -0.00023354100344 0.00017472000787)
(0.0199177925559 -0.000182566515038 0.000403822587004)
(0.00525414185588 0.000784216125527 -3.67826781906e-05)
(0.00560768103639 -0.00100685021632 5.95229064563e-05)
(0.0208475781026 8.94331834079e-06 0.000883167268614)
(0.0224103821385 0.000718980433251 0.00218539093589)
(0.00575515510824 0.000899667041968 1.49103889703e-07)
(0.00637526386625 -0.00119152443782 0.000129970243423)
(0.025701071227 0.00205842870214 0.000367489121206)
(0.0142893101267 -0.00187959904747 -0.000307527803298)
(0.00709945621169 0.00056732282255 6.45579997873e-05)
(0.0111284324172 -0.000318955633394 -2.99740561359e-05)
(0.00209040521328 0.00236987482459 0.00059258818011)
(0.0307814274142 0.020392441958 0.00426478500524)
(0.0110346606633 0.010808944336 0.00138354584743)
(0.0141224658739 0.0106040814849 0.00108427228344)
(0.00184817486415 0.00214557767096 0.000101713651052)
(0.0267382321887 0.0188548276996 0.00143784570667)
(0.00927081333712 0.00930486092237 0.000337590373918)
(0.0034877031384 0.0125018760542 0.00105867437123)
(0.00298552109163 0.0111849926283 0.000143792922148)
(0.00392894386585 -0.00892115487574 -2.09003393543e-05)
(0.00542927476885 -0.0264190138879 -0.00442391301444)
(0.00145544378633 -0.00190369990576 0.000145086435673)
(0.0076943553954 -0.0101123557849 -0.000591511951057)
(0.237539210926 0.0463653672994 0.0055689548053)
(0.335228242542 1.14984152363e-07 0.0010817699206)
(0.0157192916895 0.0198465386726 5.38159981677e-05)
(0.208706946878 0.0413401787587 0.00238560100144)
(0.291953264869 -5.11473089737e-08 0.000512208071199)
(0.353431072567 -4.02039464557e-08 5.91231647657e-05)
(0.352693946743 -5.53455624666e-08 -0.00377370920266)
(0.306540135923 -9.4992899246e-08 0.00015048901764)
(0.304886266114 3.83103254003e-08 -0.000703673090806)
(0.0109180168276 -0.0143750896027 -0.000155058760617)
(0.333697708714 9.03225555518e-08 -0.00598207305217)
(0.186850888497 -0.0330413960908 -0.0267068067763)
(0.0125822471379 -0.0150933389301 -0.000751500024844)
(0.289141157223 5.70544752513e-08 -0.00119787406736)
(0.168064329092 -0.0290247541602 -0.00821000255462)
(0.33522798345 1.14984141637e-07 0.00108180331959)
(0.0182523058825 -0.0228870746269 0.00155842012048)
(0.208706851328 -0.0413399935525 0.00238546945504)
(0.291953236885 -5.11473097145e-08 0.000512223537579)
(0.0157192743295 -0.0198467436531 5.38276892786e-05)
(0.352694032546 -5.53455621965e-08 -0.00377359876906)
(0.306540126161 -9.4992899369e-08 0.000150624536589)
(0.304886387112 3.83103252815e-08 -0.000703489985502)
(0.186850683684 0.0330419470511 -0.0267066489585)
(0.0109182904985 0.01437532982 -0.000154840497208)
(0.289141111401 5.70544752513e-08 -0.00119816925583)
(0.168064266499 0.0290256429253 -0.00820988379943)
(0.0125821613736 0.0150933968993 -0.000751191822207)
(0.0110345565661 -0.0108087421047 0.00138375309763)
(0.0164130144867 -0.0122936805286 0.00272159576758)
(0.00209037802087 -0.00236988109435 0.0005925459201)
(0.0267384479806 -0.0188545434731 0.00143787362723)
(0.00927079153228 -0.009304491849 0.000337493955259)
(0.0141234414279 -0.0106036497219 0.00108443133593)
(0.00184800268596 -0.00214541061367 0.00010173700355)
(0.00298537790926 -0.0111848042549 0.00014376096217)
(0.00542925028779 0.0264193847755 -0.0044234937868)
(0.00392865016212 0.00892146633978 -2.10514173028e-05)
(0.00769393956538 0.0101124138187 -0.000591446892289)
(0.00145523573328 0.00190341936209 0.000145108747552)
(0.038447525913 -0.00113180576486 -0.00479674674248)
(0.0266074054067 -0.00585719267207 -0.00293314510453)
(0.011595100553 -0.000769773737983 -0.000478782751108)
(0.023473233679 -0.000414575708028 -0.00161178341003)
(0.00873906643714 -0.00223706796718 -0.000337275593432)
(0.00644000213646 0.000831065099822 -2.57018625018e-05)
(0.0198956429514 -0.000396189302148 -0.000161874029605)
(0.00609789007338 -0.0011886123723 -7.35678980815e-05)
(0.00549831825029 0.000751977327751 5.40952017395e-05)
(0.017402799752 -0.000758911988872 0.000701475282929)
(0.00536535159445 -0.00108858079501 5.45069216688e-06)
(0.00502297244456 0.000474448278325 0.000160232578576)
(0.0132145407668 -0.00290595620925 0.00269536256038)
(0.00485987466969 -0.00139391303405 0.000160868004179)
(0.00402648378808 -0.000484359464779 0.000446903002041)
(0.00337214458064 -0.00218794790367 0.000356048389551)
(0.00207148665999 0.00191162868704 -2.84250685822e-05)
(0.00117844297498 0.000854562133253 6.41728064338e-05)
(0.0119832917535 0.00245502360741 -0.00169401909885)
(0.00197987406662 0.00067489187003 -5.14036421992e-05)
(0.0038116454346 0.00146262670796 -0.000237672032912)
(0.0161444792879 0.000713941702908 -0.00041356905862)
(0.00411942733952 -0.000118759880261 -0.000205087929189)
(0.00472924052909 0.00107281443033 -3.76608587012e-05)
(0.018342223463 0.000286669601268 1.25446556534e-05)
(0.00486143766134 -0.00062403173335 -7.75607078292e-05)
(0.00515634413735 0.0009695488274 2.2054296562e-05)
(0.0199177852392 0.000182521053268 0.00040398752599)
(0.0052540799467 -0.000784060900578 -3.67028129281e-05)
(0.00560770267927 0.00100694015498 5.95809109645e-05)
(0.022410227605 -0.000719128551127 0.00218516032707)
(0.00575510212348 -0.000899697303435 2.49222503258e-07)
(0.00637521013102 0.00119136973072 0.000129985883713)
(0.0142896430094 0.00187953022721 -0.000307530838206)
(0.00709936924947 -0.000567481674329 6.4613232554e-05)
(0.0111285970676 0.000318945726856 -2.99698559187e-05)
(0.0266440746958 0.00667795110733 0.0027417549893)
(0.0124477807463 0.00154966148255 0.000196083102233)
(0.0323473628937 0.0116268816318 0.00367704414228)
(0.01451218196 -0.000196420279586 0.00277742312719)
(0.00951261629199 0.00285110618837 0.000175933668532)
(0.00677482947077 -0.000780232298082 8.99786484678e-05)
(0.0115804585725 0.00193303767069 0.00428339829064)
(0.00790278315711 -0.00135226861964 -0.000550148986039)
(0.00634427098505 0.00126017161501 6.3952328022e-05)
(0.00564961576259 -0.000799966399627 1.77891354929e-06)
(0.00750333208536 0.00135345270895 0.00160390735002)
(0.00679924662892 -0.000960486013698 -0.00116863657782)
(0.00551729427031 0.00106810981046 -1.57588556484e-05)
(0.0052252931295 -0.000617232829875 -7.9629941163e-05)
(0.00663646697956 0.00138376987479 0.000903360939429)
(0.00613772407838 -0.000516017165211 -0.00163140940234)
(0.00508086402435 0.00125781605396 -0.000107395349638)
(0.00404412311191 0.000186585493061 -0.000184229753906)
(0.00590463936556 0.00186174710916 -4.58617691625e-06)
(0.00499153571613 0.000858079298133 -0.00271184789704)
(0.00326416340811 0.00190861005949 -0.00018934697171)
(0.00418319299549 0.00270871594946 -0.00158247069627)
(0.00106056528261 -0.000856451160707 2.30576138642e-05)
(0.00150356529732 -0.00110129888138 -0.000168141969233)
(0.00176551163797 -0.000597779780208 5.95137779186e-05)
(0.00387201256218 -0.00126827451161 9.28580291466e-05)
(0.00260882658376 -0.000838675129278 0.000250181520964)
(0.00464718308686 -0.00201233006477 0.000444493487629)
(0.00424871540911 0.00029287774535 7.90776289533e-05)
(0.00485039677957 -0.00102080245469 3.53812213138e-05)
(0.00501239743635 4.05208302724e-05 0.00160629262675)
(0.00588728950939 -0.0014016453793 -0.000613533840728)
(0.00496704445755 0.000688528002281 2.45847677036e-05)
(0.00523492394881 -0.000963552904967 -7.40044056249e-07)
(0.00605700086426 0.000757792385179 0.00123985634189)
(0.00643600033439 -0.00122718294054 -0.00101822077866)
(0.00533253125067 0.000806221288865 -7.7853166977e-06)
(0.00572808642535 -0.00104691005741 -3.17715177836e-05)
(0.00655146806446 0.000999382118648 0.00107963830047)
(0.00698273124036 -0.00118945702572 -0.00138315981337)
(0.00591141120893 0.000870308022993 -3.74797397972e-05)
(0.00663272168594 -0.00144294461217 2.59888480916e-05)
(0.0071750438887 0.00134519213875 0.000736792271922)
(0.00904348719852 -0.000876223665956 -0.00285357487135)
(0.00727509258348 0.000266690561148 0.000133737986773)
(0.0103630012032 -0.000425966086728 0.000102290563991)
(0.00987414573731 0.00204481009362 -0.000974133683579)
(0.0120430375657 -0.00218581410772 7.80087127791e-05)
(0.00180323981368 0.00209976666427 -0.000105595523817)
(0.0267024334157 0.0183224283832 -0.00148981661361)
(0.00924011304879 0.0092061485555 -0.00034432544872)
(0.0159986447575 0.0108874136886 -0.00313624876701)
(0.00202834111801 0.00232184480632 -0.000693589681449)
(0.0306912403171 0.0196567640758 -0.00456175853976)
(0.0110005163065 0.0107172225801 -0.00145802108572)
(0.00297782706022 0.0111310938223 -0.000150396332531)
(0.00348012198809 0.0124485966147 -0.00111537526664)
(0.00144761259174 -0.00202714403318 8.23735684488e-07)
(0.00768233561519 -0.00946624785212 -0.00011154089921)
(0.00182276911265 -0.00235205427349 -0.000980611211784)
(0.00840038178577 -0.0143990354136 0.00344747563239)
(0.20893784218 0.0413484596216 -0.00243815260395)
(0.292374853439 3.89692637555e-08 -0.000526335717719)
(0.0182427685378 0.0228446006639 -0.00162046746843)
(0.237775682896 0.0463723633013 -0.00573744427325)
(0.335631247235 1.88293456341e-08 -0.00120000528567)
(0.307014403332 -1.91809740678e-08 -0.000168185106705)
(0.305376051591 -2.52210061717e-08 0.000745428896274)
(0.353897359477 -1.18451352444e-07 -0.000237942971891)
(0.353637901233 1.7116297585e-08 0.00323257474962)
(0.0117106724267 -0.0137330081653 0.000271441473255)
(0.289414451952 4.70845747946e-08 0.00135392223247)
(0.164626864121 -0.028426012001 0.00995114013521)
(0.0466718832018 -0.0492125475178 0.0189510830898)
(0.335173861095 -2.98965150891e-08 0.00507349635916)
(0.190234497349 -0.0316028244891 0.0257862589966)
(0.292374921334 3.89692625736e-08 -0.000526419262432)
(0.0157190170274 -0.0198034980846 -6.15747646701e-05)
(0.237775812502 -0.0463722731392 -0.00573746081933)
(0.335631116328 1.8829336546e-08 -0.00119983381893)
(0.0182426901738 -0.0228444856311 -0.00162049350079)
(0.305376059046 -2.52210062905e-08 0.000745225230072)
(0.353897235678 -1.18451353632e-07 -0.000237776688196)
(0.353637706881 1.71162974481e-08 0.00323259778852)
(0.164626908992 0.0284262401015 0.009951139862)
(0.011711025394 0.013733041449 0.000271544856974)