/*--------------------------------*- C++ -*----------------------------------*\
  =========                 |
  \\      /  F ield         | OpenFOAM: The Open Source CFD Toolbox
   \\    /   O peration     | Website:  https://openfoam.org
    \\  /    A nd           | Version:  7
     \\/     M anipulation  |
\*---------------------------------------------------------------------------*/
FoamFile
{
    version     2.0;
    format      ascii;
    class       volScalarField;
    location    "2";
    object      p;
}
// * * * * * * * * * * * * * * * * * * * * * * * * * * * * * * * * * * * * * //

dimensions      [0 2 -2 0 0 0 0];

internalField   nonuniform List<scalar> 
5218
(
1.01287790895
0.996070195664
1.01162994773
1.02764653842
1.04632302466
1.06745777785
-0.161842290959
-0.131277265914
-0.106596009657
-0.0857980500396
-0.0629050116922
-0.034549424826
1.01045605527
0.997505560224
1.01238757455
1.02668834308
1.04558612705
1.07669031663
1.11237942529
-0.176199849112
-0.129833487757
-0.10589394839
-0.086797544672
-0.0651998244358
-0.0357898979256
1.01078045084
0.998155756119
1.01279764888
1.02628555718
1.04450246454
1.07471185569
1.08508945402
0.452952036706
-0.174780208144
-0.174415866409
-0.126971219314
-0.105421282815
-0.0871829180833
-0.0662083514427
-0.0363320564421
1.0106394631
0.996933376699
1.01207139251
1.02737347764
1.04652045121
1.07217727787
1.10785425143
-0.169591748183
-0.131422156171
-0.106443750132
-0.0863142744513
-0.0639743039934
-0.0353894140307
1.01878083835
0.993726707014
1.00883557245
1.0252674203
1.0429625629
1.0619722745
-0.161356772973
-0.133535616254
-0.108993792758
-0.0879141825726
-0.0652706478445
-0.0369065634915
0.986608442466
0.994815409057
1.01258769258
1.02701364169
1.0435405435
1.0669366483
-0.166046682056
-0.128403419077
-0.104934676149
-0.0862357216036
-0.0650579594945
-0.0306543608785
0.988302882146
1.00601448026
1.01814119585
1.02922221525
1.04413895557
1.07240230732
1.12808209334
-0.154461180643
-0.118250114714
-0.0983691833526
-0.083363530035
-0.064788186613
-0.0363837381398
0.989705926073
1.00601432491
1.01814096023
1.02922195385
1.04413868438
1.06753124151
1.10559898733
0.424602728347
-0.23227881534
-0.15446118708
-0.118250058798
-0.0983692428003
-0.0833637623762
-0.0647884380474
-0.0389765228099
0.986915234027
0.997662719308
1.01391390412
1.02682055918
1.04282132067
1.07129656944
1.12171979703
-0.172714020208
-0.127675844505
-0.104160571258
-0.0869753979363
-0.067570377371
-0.0323452672625
0.994949251359
0.994197037359
1.01129446322
1.02645236851
1.04194752142
1.05903798549
-0.164333168449
-0.126464837136
-0.104663137139
-0.0853832226225
-0.0640274163931
-0.0373722153031
0.985358432701
0.995463620962
1.01349529848
1.02681710194
1.04200881303
1.06605802216
-0.166440485218
-0.126754653805
-0.10387144349
-0.0864533035839
-0.0665284406349
-0.0312798960166
0.988668285371
1.00713592793
1.01897325204
1.02949677729
1.04341807883
1.07013080352
1.13252392044
-0.153549472199
-0.117204261499
-0.0975969786827
-0.0833635398055
-0.0655927084662
-0.038834293541
0.990800403055
1.00713578851
1.01897307964
1.02949658621
1.043417887
1.06428078153
1.1100351167
0.421480225388
-0.239786463234
-0.153549443606
-0.117204184168
-0.0975969601537
-0.0833636249875
-0.0655928540161
-0.0423375237731
0.986379759952
0.999034864723
1.01526162224
1.02687797063
1.04104023304
1.0699032857
1.12548376833
-0.171866518449
-0.125519411085
-0.102718759408
-0.0871082036388
-0.06951346622
-0.0336649019341
0.992626965129
0.994534139474
1.01184571918
1.02628006781
1.04099885079
1.05784207627
-0.165430489017
-0.125326169708
-0.103930721702
-0.0854617836322
-0.0648709997922
-0.0386064283776
0.986341009849
0.99566871713
1.01334299474
1.02683133525
1.04220309484
1.0659100329
-0.166159205506
-0.127133455037
-0.104147599677
-0.0863060233252
-0.0660320939568
-0.0311711352428
0.98877496607
1.00622066263
1.01827147576
1.02923893094
1.04400142845
1.07021729514
1.1317723112
-0.15459230181
-0.118216943016
-0.0982727655025
-0.0832802951701
-0.0647523985043
-0.0385129333485
0.990618291966
1.0062205901
1.01827133269
1.02923877618
1.0440012974
1.06457801571
1.1085161088
0.421496432199
-0.239925778864
-0.154592217537
-0.118216783229
-0.0982727065184
-0.083280371005
-0.0647525053639
-0.0418267637181
0.986892455133
0.99886067073
1.0149728659
1.02682861406
1.0413655777
1.06993129489
1.12474329005
-0.172053329406
-0.126119741847
-0.103119648112
-0.0870226873066
-0.068927182579
-0.0333445501515
0.993607057254
0.994972602381
1.01182815821
1.02631146584
1.04105787524
1.05761707175
-0.164969048596
-0.125559269478
-0.104135071868
-0.0853365601971
-0.0644844700069
-0.0385593150226
0.991034728765
0.996529739096
1.01249710823
1.02713939891
1.04393810538
1.06579119202
-0.164258735415
-0.129542816252
-0.105645226248
-0.0858572008738
-0.0640094824706
-0.0327906334747
0.990133272841
0.99936913032
1.01399392767
1.02631379316
1.04230505144
1.07475693329
1.1234714016
-0.1757669224
-0.127720949435
-0.104632260991
-0.0871553756893
-0.0676564490085
-0.0342350866715
0.99079764059
1.00057927532
1.01464571205
1.02601726434
1.04088044127
1.07172069205
1.09623165593
0.426352458362
-0.22692010653
-0.174112704845
-0.124370848171
-0.104095606014
-0.0875262710456
-0.068968820274
-0.0355093911884
0.989892583982
0.997666416911
1.01331085575
1.02697201485
1.04411063821
1.07093260625
1.11777403074
-0.172246201814
-0.129781107764
-0.10537041431
-0.0865954273382
-0.0656715683656
-0.0329426987129
0.9994234472
0.996494634105
1.0116739313
1.02667754769
1.04209136454
1.0575722766
-0.16286963334
-0.127220628968
-0.105199467189
-0.0851271017982
-0.063085820805
-0.0351837438839
0.999423260369
0.991241392862
1.02200187872
0.993838323499
0.996494947031
1.00401157612
0.996045460411
1.00566258208
1.01167448696
1.01923215776
1.00957850529
1.02116627954
1.02667827992
1.03431420043
1.02506671226
1.03732294471
1.04209172479
1.04985825052
1.0416601807
1.05554174807
1.0575719693
1.0600993776
-0.171430628029
-0.167100927597
-0.162871750256
-0.139127597711
-0.161099902384
-0.139539222615
-0.1272217783
-0.115793455731
-0.132649445598
-0.114152660803
-0.105199752079
-0.0950784253688
-0.108582772488
-0.0928692257711
-0.0851267092522
-0.0746274315079
-0.0877417171997
-0.0715439707608
-0.063085119469
-0.0499656171878
-0.0656096390187
-0.0460696584037
-0.0351830761054
-0.00607275428806
-0.0386591610443
-0.00588999871158
1.08102831518
1.07093235724
1.10380567306
1.06589991578
1.07792226984
1.07101491881
1.0964665788
1.11777370568
1.10673035297
-0.181689076562
-0.200479050754
-0.170798297626
-0.199481229442
1.09623160247
0.662477059736
1.11132520971
1.08413594037
0.678144230467
0.426352095963
-0.0641830946508
0.451682398283
-0.0352730271268
-0.21287659732
-0.22692004093
-0.244019428113
-0.214779380301
-0.178623298871
-0.238224933669
0.662477487558
1.12347153549
1.08413607786
0.678144304631
1.11132560508
-0.0641831385899
0.451682403015
-0.035273291352
-0.244019351025
-0.2128764857
-0.178623307832
-0.238224813094
-0.214778503839
1.10380625243
1.06579159617
1.08102913093
1.07101525482
1.09646729512
1.06590040884
1.0779235553
1.10673117373
-0.200477963188
-0.181687477706
-0.199479558175
-0.170796732225
0.991241360652
1.02200243289
0.993838491696
1.00401115455
0.996045539942
1.005662421
1.01923155582
1.00957830975
1.02116587068
1.03431360203
1.02506611122
1.03732236087
1.0498582497
1.04165977834
1.05554199957
1.06009990709
-0.171428386589
-0.16709935538
-0.139126097371
-0.161098102661
-0.139537672807
-0.115792738379
-0.132648285577
-0.114152071504
-0.0950785079745
-0.108582562097
-0.0928692375839
-0.0746280222696
-0.0877418985452
-0.0715442983737
-0.0499663566916
-0.0656101090794
-0.0460702380223
-0.00607295943847
-0.0386597409877
-0.00589013607044
1.01878137393
0.991045111727
0.996602830034
0.987982977402
0.99372749654
1.00455096459
0.992230629231
1.00497931721
1.00883707356
1.02109531206
1.00939216154
1.02095123449
1.025269433
1.03825920637
1.02492771283
1.03667527098
1.0429641312
1.05746251117
1.0410504991
1.05489827775
1.06197339358
1.06025153477
-0.167283226627
-0.170703797912
-0.161356841066
-0.140490111539
-0.163037325569
-0.138025686729
-0.133535420774
-0.11468625773
-0.131009872795
-0.113216340697
-0.108992839446
-0.0931466845736
-0.10772348257
-0.092900904664
-0.0879125294739
-0.0714508192932
-0.0878706006036
-0.0725270809707
-0.065268279627
-0.0447449588376
-0.0664771850924
-0.045537657741
-0.036905348159
-0.00538588078427
-0.0361066039388
-0.00488500402809
1.07946943603
1.07217782739
1.09759015693
1.06722873171
1.08229728598
1.07189147881
1.10471933344
1.10785393523
1.11871230002
-0.170883817557
-0.199569960229
-0.175781646876
-0.20576394543
1.08508938014
0.679153237731
1.12435564267
1.09707189704
0.663161077393
0.452952150779
-0.0322401062373
0.427189013319
-0.0622422392296
-0.21385045713
-0.174780089153
-0.234241243156
-0.24018377698
-0.224541676786
-0.240122930905
0.679153301375
1.11237954959
1.09707201782
0.663161306071
1.12435593963
-0.032240069235
0.427189209163
-0.0622421136265
-0.23424128867
-0.21385069518
-0.224541599475
-0.240123009949
-0.240183984136
1.09759026055
1.06745703702
1.07946910827
1.07189096698
1.10471951025
1.06722798944
1.0822973182
1.11871272271
-0.199569881599
-0.17088354477
-0.205763744105
-0.17578109577
0.991044430074
0.996602431748
0.987982244584
1.00454966601
0.992229672723
1.0049776555
1.02109342858
1.00939036773
1.02094898621
1.03825753908
1.02492540771
1.03667331266
1.05746136079
1.04104862533
1.05489712681
1.06025061896
-0.16728299511
-0.170702762915
-0.140489864415
-0.163036380124
-0.138024903955
-0.114686863434
-0.131009455304
-0.113216438547
-0.0931480964327
-0.107724029396
-0.0929021263857
-0.0714531070816
-0.0878721372187
-0.0725289603383
-0.0447466756377
-0.0664791611166
-0.045539274421
-0.00538607329164
-0.0361080251599
-0.00488525871955
0.994949441647
0.988124184229
0.992730097007
0.987823030499
-0.0373709949548
-0.00477220489528
-0.0385289011916
-0.00493680271739
0.988123539291
0.992729930256
0.987822323068
-0.00477251359002
-0.0385298477304
-0.00493705370649
0.992627152685
0.98782905025
0.993105359913
0.988122064027
-0.0386055703256
-0.00497167332899
-0.0386013658078
-0.00498655773613
0.987828391293
0.993104947682
0.988121555279
-0.0049719140632
-0.0386020805398
-0.0049866524109
0.993607362854
0.988379736151
0.997485082358
0.99064408635
-0.0385586966063
-0.00498892185903
-0.038579083231
-0.0054820756131
0.988379277898
0.997485173855
0.990643857584
-0.0049890300901
-0.0385797506272
-0.00548224695531
0.990109855558
0.989892484933
0.990556646214
1.01557762
0.992414426645
1.01173818719
0.992133810955
1.00476219282
0.997666560695
1.00583887855
0.997532521171
1.00461536994
0.997853938087
1.00513001765
1.01985153826
1.01331130988
1.02010699882
1.012122842
1.01968976936
1.01248139828
1.01979580815
1.03500888872
1.02697257953
1.03450852652
1.0273774835
1.03574489227
1.02720812208
1.0355988839
1.05436771067
1.04411100323
1.05656593457
1.04512724393
1.05555994052
1.04570821948
1.05803863553
-0.14505657267
-0.172247146829
-0.147687209373
-0.16208001322
-0.145891769919
-0.170067791168
-0.148576098935
-0.116655407955
-0.129781830106
-0.116347139938
-0.13081654301
-0.117686592865
-0.131389694969
-0.117629334253
-0.0955357028593
-0.105370592253
-0.0957124860048
-0.106261948604
-0.0957557524962
-0.106217578405
-0.0959119192266
-0.0756432388899
-0.0865951492919
-0.0771080964713
-0.085625154809
-0.0749784990456
-0.0861636444131
-0.0758313365597
-0.0498400697604
-0.0656712350137
-0.0510561419433
-0.0632075553093
-0.0499534576872
-0.0641369345566
-0.0504917164599
-0.0114935405725
-0.0329425499773
-0.0112895411622
-0.0356734353229
-0.00647791376529
-0.0358682430425
-0.00681667682968
0.991713337275
0.990797645979
0.992770512282
1.01133283618
0.992062105708
1.01138583151
0.992375934435
1.09680114377
1.07172069732
1.08867771096
1.07581203789
1.09323041026
1.07398448783
1.08528295378
-0.0117383498025
-0.0355093619648
-0.0122865541385
-0.0359571238174
-0.00670685516548
-0.0363840292508
-0.00672496329931
0.992770489295
0.990133373077
0.991713373633
1.01138585735
0.992375891026
1.01133308896
0.992062117853
1.08867781762
1.07475714561
1.09680146193
1.07398456303
1.08528310095
1.07581228899
1.09323075977
-0.0122865736773
-0.0342351367592
-0.011738331277
-0.0363840262368
-0.00672497013953
-0.0359571146299
-0.0067067700403
0.990556650755
0.991034917126
0.990109897026
1.01173842361
0.992133809153
1.01557808176
0.992414502676
1.0058386051
0.996529546663
1.00476184137
0.997853818361
1.0051297323
0.99753243485
1.00461512662
1.02010656421
1.01249663152
1.0198509515
1.0124810102
1.01979532297
1.01212246862
1.01968929255
1.03450810482
1.02713878979
1.03500837402
1.0272075788
1.03559851116
1.02737687998
1.03574437952
1.05656590133
1.04393779874
1.05436777801
1.04570796691
1.05803872764
1.04512695908
1.05556006369
-0.147686273336
-0.16425723997
-0.14505526941
-0.170066613822
-0.148575019128
-0.162078385299
-0.145890446644
-0.116346563219
-0.129541809897
-0.11665465918
-0.131388856762
-0.117628709606
-0.130815419705
-0.117685854271
-0.0957124706969
-0.105644960618
-0.0955357067413
-0.106217360646
-0.0959119278536
-0.106261641885
-0.0957557342175
-0.0771083878252
-0.085857519362
-0.0756436481067
-0.086163839391
-0.0758315278609
-0.0856253687554
-0.0749788221246
-0.0510563648057
-0.0640099818673
-0.0498404629312
-0.0641371507369
-0.0504918106235
-0.0632079111836
-0.0499537411966
-0.0112896035096
-0.0327909877717
-0.0114936893801
-0.0358683438392
-0.00681666837407
-0.0356737195777
-0.00647801888375
1.00098588866
1.00985075984
1.03336097905
1.00138596957
1.02156772713
0.997526830851
1.005698089
0.994078539464
0.99368102917
0.994356601591
0.994556602037
0.99339686555
0.99386285958
0.995470939143
0.998162034908
0.996240029659
0.995810747719
0.998476019643
0.995592731661
0.998580952731
0.998441352374
1.00182876637
1.00581926919
1.00549696117
1.00204801879
1.00545482233
1.00240900987
1.00169783428
1.01321470152
1.00988600553
1.00922977777
1.01340558907
1.00939488156
1.01349292418
1.01324944359
1.01713152464
1.02114251325
1.02103160319
1.01732660757
1.02093288939
1.01752452686
1.01702235791
1.0286144673
1.02513945137
1.02478121501
1.02901868057
1.02477798542
1.02885737905
1.02883990649
1.0325415595
1.03696900388
1.03688563733
1.03311822787
1.036471869
1.03303337808
1.03269673955
1.04437006752
1.0413486921
1.04084103504
1.04614630063
1.04041218271
1.04549562459
1.04514238826
1.04833925488
1.05465395007
1.05384720672
1.0507274712
1.05269081027
1.05007219328
1.04924541441
1.0618531692
1.05970564598
1.05805088893
1.06468343919
1.05713595699
1.06486911796
1.06231581576
1.06558495221
1.06872929403
1.06896937454
1.06562275132
-0.168776064839
-0.168043609024
-0.164592143772
-0.171126525186
-0.164857786909
-0.172361545009
-0.16813649382
-0.151098257005
-0.161650551857
-0.158857207482
-0.154202925576
-0.158636851578
-0.153880626669
-0.152028715432
-0.143692947379
-0.138823021957
-0.137986412242
-0.146756581818
-0.136899395448
-0.145756246169
-0.145032345456
-0.1247866366
-0.131928646372
-0.131623691254
-0.126178901505
-0.130737007795
-0.125840487754
-0.125323332463
-0.1189994633
-0.114011504311
-0.113709940778
-0.119983438736
-0.113436142453
-0.119552444574
-0.119526467925
-0.102827699245
-0.108310330635
-0.10837551561
-0.103233342099
-0.108051019687
-0.103209877207
-0.102935653142
-0.0976646575267
-0.0929464952501
-0.0926002839715
-0.0979867688332
-0.0926059042922
-0.0978278405821
-0.0978648267841
-0.0823609343754
-0.0876841334314
-0.0875976613226
-0.0825502791396
-0.0875170906252
-0.0827339107375
-0.0822325784592
-0.0769831498048
-0.071846408091
-0.071198704987
-0.0771337331291
-0.0714387855584
-0.0771815605992
-0.0769592949561
-0.0594530969968
-0.0657438901295
-0.0654374374437
-0.0594270053035
-0.0655725961251
-0.0598185928889
-0.0590930881872
-0.0529055016446
-0.0464211972723
-0.0455607139531
-0.0528528114575
-0.0460424837475
-0.0529844965293
-0.0526760354007
-0.0289959475658
-0.0388014445165
-0.0378602099761
-0.0291737920914
-0.0385291643791
-0.0300632038565
-0.0277570482051
-0.0177939871205
-0.0062049077693
-0.0054171217897
-0.0179055756275
-0.00580523636561
-0.0188348887231
-0.0166678508857
1.07616241231
1.07833235492
1.07281242562
1.08394847133
1.07240965976
1.08493510267
1.07675295552
1.10987837044
1.09917208482
1.10114069714
-0.186187591331
-0.172199691061
-0.176560229332
-0.176908147329
-0.17822588609
-0.177830863784
-0.184969473002
1.13571642891
1.11302941901
1.12528370451
1.10516986731
1.13215903651
1.10928715615
1.12328998895
1.07927636607
0.66713977941
0.946473274565
0.935978812526
1.08208841611
0.439949287581
0.271338169094
0.262116253157
-0.0444087642041
0.112430112206
0.10475714415
-0.344760071898
-0.29414774415
-0.300447141644
-0.330270366964
-0.381835179037
-0.198288871457
-0.270262481968
-0.276731257088
-0.361116386802
1.07927663041
0.667140416896
0.946473371826
0.935978704495
1.08208872415
1.1357166091
1.11302972317
1.10517001551
1.12528396749
1.1092872877
1.13215946469
1.12329014254
0.439949654984
0.271338116906
0.262115942053
-0.0444087822237
0.112430109693
0.10475731368
-0.381835044991
-0.198289758504
-0.270262264463
-0.276731709204
-0.361115920959
-0.344759927101
-0.29414704629
-0.300446886459
-0.330269913012
1.07616332987
1.07833357711
1.08394983183
1.07281311318
1.08493641004
1.07241019303
1.07675418553
1.10987910982
1.09917298065
1.10114159102
-0.186185469628
-0.172197861133
-0.176906380266
-0.17655877387
-0.177828666289
-0.178224021687
-0.184967297277
1.00098636416
1.00985121084
1.00138654645
1.03336161519
0.99752721781
1.02156841615
1.0056985718
0.994078961222
0.993681177268
0.994557123297
0.994356921411
0.993863159297
0.993397038436
0.99547152666
0.998161839173
0.996239986024
0.998475976944
0.995810837876
0.998580653026
0.995592601359
0.998441254393
1.00182855833
1.0058189953
1.00204787591
1.00549687191
1.00240878692
1.0054545174
1.00169771075
1.01321443277
1.00988567937
1.01340534661
1.00922972288
1.01349249855
1.00939458548
1.01324938041
1.0171313125
1.02114205939
1.01732632099
1.02103134178
1.01752411898
1.0209324261
1.01702220208
1.02861384946
1.02513895328
1.02901799087
1.02478074597
1.02885678327
1.02477753845
1.0288391849
1.03254100025
1.03696852807
1.03311757356
1.03688509019
1.03303281002
1.03647120015
1.03269609157
1.04436986995
1.04134834391
1.0461460556
1.04084064434
1.04549543907
1.04041188405
1.04514224879
1.04833942588
1.05465406248
1.05072754635
1.05384756481
1.05007246189
1.05269097243
1.04924559724
1.06185380871
1.05970592329
1.0646839854
1.05805151466
1.06486934135
1.05713592494
1.06231702548
1.06558557968
1.06872981017
1.0689692623
1.06562442659
-0.168774476288
-0.168041887104
-0.171124991923
-0.164590445133
-0.172360610476
-0.164856521759
-0.168133470909
-0.151096125307
-0.161648277921
-0.154200918174
-0.158855518093
-0.153878712805
-0.158634686141
-0.152026346256
-0.143691108937
-0.13882137555
-0.146754934129
-0.137984860464
-0.145754469897
-0.136897686287
-0.145030513618
-0.124785564786
-0.131927449874
-0.126177843567
-0.131622443693
-0.125839330862
-0.130735779426
-0.125322399329
-0.118998657042
-0.114010842282
-0.119982729237
-0.113709476278
-0.119551666101
-0.113435556066
-0.119525736547
-0.102827446767
-0.108310031807
-0.103233115805
-0.108375242792
-0.103209605902
-0.108050682187
-0.102935479967
-0.0976645033797
-0.0929465204627
-0.0979867248217
-0.092600294584
-0.0978278123647
-0.0926060473409
-0.097864777442
-0.0823612557631
-0.087684347876
-0.0825504749883
-0.0875977567645
-0.0827341617144
-0.0875173284375
-0.0822328571606
-0.0769835028967
-0.071846792188
-0.0771340766366
-0.0711991226772
-0.0771819345209
-0.0714393620096
-0.0769595410176
-0.05945382241
-0.0657443660158
-0.0594274666391
-0.0654380224133
-0.0598190639888
-0.0655732172081
-0.059093756265
-0.0529062806816
-0.0464217789502
-0.0528533931082
-0.045561567706
-0.0529850938645
-0.0460432727704
-0.0526768819075
-0.0289966769273
-0.0388019936604
-0.0291742520743
-0.0378610502282
-0.0300636987522
-0.038529993333
-0.0277577226373
-0.0177945499099
-0.00620508938144
-0.0179059708573
-0.0054172841847
-0.0188353590352
-0.00580545304011
-0.0166683128952
0.990608241561
1.01063966737
0.991116847387
0.989336449086
0.98829803648
0.989031632225
0.989704966299
1.00366347146
0.996933953559
1.00443848253
0.995058285045
1.0038632699
0.996872437865
1.00523639927
1.01958306423
1.01207224411
1.01966903863
1.01204145537
1.01972159395
1.0129434065
1.01995896143
1.03644711372
1.02737450506
1.03608240956
1.02730361322
1.03554798284
1.02705384738
1.03484448471
1.05712595447
1.04652142267
1.05909896169
1.04498165626
1.05593863945
1.04473990379
1.05743820399
-0.146194955957
-0.16959192096
-0.148315107941
-0.163174678042
-0.145399254312
-0.171038545571
-0.147121007507
-0.118098719576
-0.131422173746
-0.117811779338
-0.129940462519
-0.116943935578
-0.129665311222
-0.116431016657
-0.0960183255194
-0.106443016759
-0.0961225961567
-0.105874910365
-0.0957491733721
-0.105525026179
-0.0958827632835
-0.0749846585126
-0.0863128848082
-0.0758606731265
-0.0860673353482
-0.0757729573863
-0.0867410570006
-0.077179128621
-0.0491914212123
-0.0639728843464
-0.0501062606384
-0.0638868599184
-0.0491757492615
-0.0655880831596
-0.0507675929929
-0.00609782329822
-0.0353886107733
-0.0067458392262
-0.0314266897443
-0.010659899662
-0.0325609359522
-0.0111451616566
0.991406671687
1.01078047195
0.991862640774
0.989595318041
0.99123099909
0.990378202899
0.99240880375
1.00509192321
0.998155859947
1.00584675842
0.998906965967
1.00662416934
1.0002350088
1.00776097456
1.01952685822
1.01279775263
1.01960694845
1.01369787798
1.01990693779
1.01438917821
1.02005138035
1.03494927351
1.02628566901
1.03416648175
1.0262998957
1.03313826042
1.02595882787
1.03207942046
1.05994698193
1.04450259855
1.05883918442
1.04263736607
1.05642477707
1.04108374397
1.05411700481
1.09418431926
1.07471189806
1.08614466652
1.07544705332
1.09761421061
1.07227025385
1.08939477272
1.12634468493
1.10616802615
1.12431865104
1.1367221514
1.11405325746
1.13319872567
1.11025490845
-0.291232720113
-0.325591638434
-0.335764289597
-0.296009709416
-0.148030371709
-0.174415935249
-0.143479391656
-0.178658831385
-0.145802206064
-0.172237465231
-0.140334206539
-0.116685897034
-0.12697126223
-0.115356829826
-0.127476652661
-0.115144684364
-0.124244624839
-0.113983372791
-0.0960601536698
-0.105421159658
-0.0960181067515
-0.104734298498
-0.0957683758266
-0.104212044968
-0.0958112331304
-0.0768337989632
-0.0871826349101
-0.0775330529519
-0.0872824938798
-0.0785685501573
-0.087649414312
-0.0794828700528
-0.0509484812135
-0.0662080649876
-0.0517779087979
-0.067661247466
-0.0530423436605
-0.0690162858214
-0.0545908943477
-0.00666596256532
-0.0363318888357
-0.00671379622495
-0.0341667873928
-0.0117423597247
-0.0355243308812
-0.0123153512079
0.99186258312
1.0104559757
0.991406477436
0.990378163991
0.992408716884
0.989595177947
0.991230797381
1.0058466926
0.997505199227
1.00509146241
1.00023490566
1.00776082721
0.998906699224
1.00662376119
1.01960683161
1.01238705655
1.01952630537
1.01438906062
1.02005127402
1.01369744167
1.01990640065
1.03416640431
1.02668777137
1.03494864878
1.02595869577
1.03207929193
1.02629937208
1.03313766163
1.05883912017
1.04558557739
1.0599465654
1.04108357951
1.05411693702
1.04263681572
1.05642433108
1.08614462831
1.07669005254
1.09418432418
1.07227015413
1.08939481397
1.07544677047
1.09761426734
0.273054341775
0.441091143871
0.263682309652
-0.266022599795
-0.3563552849
-0.375300261074
-0.194544639723
-0.272195434273
-0.143479314393
-0.176199865358
-0.148030319816
-0.172237518394
-0.140334226072
-0.178658939536
-0.145802263117
-0.115356811074
-0.129833603906
-0.116686185263
-0.124244642493
-0.113983343638
-0.127476704758
-0.115144857423
-0.0960182608876
-0.105894442751
-0.09606094161
-0.104212082363
-0.0958113479315
-0.10473467119
-0.095768981099
-0.077533268421
-0.0867984127215
-0.0768348204413
-0.087649583354
-0.0794830787876
-0.087283227751
-0.0785693300546
-0.0517780805966
-0.0652007824017
-0.050949274784
-0.0690165028142
-0.0545910711196
-0.0676620169426
-0.0530429848595
-0.00671383209179
-0.0357905507001
-0.00666608113907
-0.0355244948576
-0.0123153742418
-0.0341672584559
-0.0117424809403
0.991116431817
1.01287761289
0.990607728337
0.989031385169
0.98970456544
0.989336101607
0.988297422133
1.00443774092
0.996069346996
1.00366237845
0.996871839516
1.00523562664
0.995057413307
1.00386208215
1.01966809541
1.01162859868
1.01958154453
1.01294251521
1.01995798356
1.01204003804
1.01971998167
1.03608136615
1.02764490708
1.03644554539
1.02705278077
1.03484344931
1.02730193722
1.03554634251
1.05909817359
1.04632162522
1.05712483723
1.04473892379
1.05743742057
1.0449802401
1.05593749991
1.10037605496
1.11096363115
1.10231109433
-0.148314935136
-0.161841886431
-0.146194802777
-0.171038468675
-0.147120808466
-0.163174285271
-0.145398883804
-0.11781201444
-0.131277310152
-0.118099215031
-0.129665259894
-0.116431219702
-0.129940324308
-0.116944150685
-0.0961236518625
-0.106596923404
-0.0960197131924
-0.105525601953
-0.0958837140028
-0.10587564619
-0.0957503480065
-0.075862117721
-0.085799720872
-0.0749865607337
-0.0867422322022
-0.077180382218
-0.0860688314497
-0.0757746559923
-0.0501074670854
-0.0629069183413
-0.0491929854147
-0.0655893187232
-0.0507685941448
-0.0638885491006
-0.0491771808686
-0.0067460005423
-0.034550501133
-0.00609802574688
-0.0325616372746
-0.0111453535412
-0.0314275886144
-0.0106601889403
0.998493728062
1.02964329141
1.00646491687
1.00216950332
1.01749272185
0.996694353197
0.994030976799
0.996572989494
0.992998789633
0.996299967465
0.99617786006
0.993585274983
0.996706576381
0.992418210238
1.01287090068
1.00843522076
1.01269493547
1.01274078363
1.00902384214
1.01302288327
1.00848996749
1.02940226064
1.02498400928
1.02925094884
1.02904714039
1.02521382307
1.02928910163
1.02483274721
1.04774009228
1.04227132966
1.04694409277
1.04631583084
1.04262853751
1.04738518526
1.04172738632
1.06649555469
1.06015284168
1.06431690051
1.06398144308
1.06199745284
1.06674088313
1.05958018821
-0.154733127646
-0.159461832657
-0.152998649263
-0.152665873509
-0.161823729255
-0.154928589721
-0.159424888942
-0.126942316807
-0.132831297949
-0.126306675152
-0.125747201391
-0.133211194821
-0.126606585611
-0.132223219772
-0.103620337774
-0.108836156881
-0.103349551608
-0.103120188646
-0.108801681207
-0.103470444542
-0.108560329564
-0.0826978229029
-0.0877698156238
-0.0823668876334
-0.0824050678752
-0.0879631044826
-0.082801126288
-0.0877685178282
-0.0588790752912
-0.0650306449643
-0.0584000365153
-0.0586911274075
-0.0655726233887
-0.0591810229218
-0.0653048067416
-0.0275928329351
-0.0354550534293
-0.0255930908712
-0.0253885889452
-0.0365786610205
-0.0272345160115
-0.0353284948873
0.99419812837
1.00312422329
0.994429828286
1.0035804365
1.01129626675
1.01906996767
1.01165133875
1.01923332705
1.02645443954
1.03410136232
1.02633916643
1.03372291921
1.04194921473
1.05022898621
1.04131541351
1.0495551038
1.05903883243
1.05797218895
-0.17327564189
-0.175094893542
-0.164334219502
-0.138805950361
-0.165383740144
-0.138084780594
-0.126465428999
-0.114942936107
-0.125710134548
-0.114267719268
-0.104662816125
-0.0948536829786
-0.104210777634
-0.0946240076628
-0.0853819320341
-0.0752301388373
-0.0854485147829
-0.0755669510238
-0.0640258143659
-0.051110286028
-0.0646100645604
-0.0517714305968
0.986852624788
0.986915500747
0.989164136636
0.985565243218
0.98651891861
0.986388890036
0.989432479836
1.00438350262
0.997663180588
1.00642037016
0.995177139065
1.00514650515
0.998533191327
1.00755132708
1.01992219244
1.01391463604
1.02037626742
1.01318769066
1.02023743881
1.01483351798
1.02086064347
1.03463310617
1.02682149502
1.03377104778
1.02686525816
1.0340374235
1.02682582663
1.03311620811
1.05460645151
1.04282218654
1.05563383741
1.04247374925
1.05361107808
1.04153683505
1.05426700678
1.08335127053
1.07129703733
1.10640011139
1.06638928928
1.08432250066
1.07031301776
1.10804543472
1.12171930708
1.12514265131
-0.186312029971
-0.207358504156
-0.186851751461
-0.206056113131
-0.144553077359
-0.17271418776
-0.14549883649
-0.166529850829
-0.14373436943
-0.1723258242
-0.144212109639
-0.115537155583
-0.127676074053
-0.114391131794
-0.127293688208
-0.114485409311
-0.126213865818
-0.113095328612
-0.0953114525961
-0.104160298453
-0.0951960882607
-0.104246926328
-0.0949747315543
-0.10321263083
-0.0947714003402
-0.0765832849005
-0.086974592702
-0.0784221854993
-0.0864064356337
-0.0772195596993
-0.0871060265466
-0.0793015506926
-0.0498844201478
-0.0675694937473
-0.0523115408452
-0.0660783866962
-0.0507147516971
-0.0689579504386
-0.0536937000321
-0.00994014065642
-0.0323447674909
-0.010593815293
-0.031018421037
-0.0100683064511
-0.0332911751869
-0.010972453711
0.992618182887
0.989706015742
0.994773500018
0.988457035002
0.993853893393
0.99039259369
0.996676036047
1.10559890775
0.664172418845
1.13214633785
1.10890892049
0.665875315328
0.424602558968
-0.0691019995237
0.421805336555
-0.0774387182921
-0.233267065346
-0.232279130839
-0.237900787325
-0.230462228356
-0.239384298535
-0.236050023757
-0.0118413121765
-0.0389764493913
-0.0129366333343
-0.0385215847098
-0.0127283137224
-0.0418571127563
-0.0142077247847
0.99477343438
0.988302777028
0.99261799798
0.990392500434
0.996675936186
0.988456904528
0.993853678339
0.664172572761
1.12808249861
1.10890883013
0.665875405899
1.13214644562
-0.0691016419
0.421805360162
-0.0774386319925
-0.237900778499
-0.233267441652
-0.239384132434
-0.236049963037
-0.230462627996
-0.0129366428577
-0.0363840496172
-0.0118413490419
-0.0418572054964
-0.0142077307339
-0.0385218266763
-0.0127283320308
0.989163758012
0.986608164822
0.986852112407
0.986388689011
0.989432085431
0.985564960001
0.986518431456
1.00641967095
0.994814531411
1.00438237865
0.998532685144
1.00755066122
0.995176315843
1.00514541863
1.02037537219
1.01258629151
1.0199206946
1.01483273941
1.02085984361
1.01318645161
1.0202360411
1.03377007008
1.0270119727
1.03463155065
1.02682489757
1.03311533262
1.02686384076
1.03403608953
1.05563313498
1.04353911873
1.05460536512
1.04153596331
1.05426633521
1.0424725112
1.05361015144
1.10640032908