/*--------------------------------*- C++ -*----------------------------------*\
  =========                 |
  \\      /  F ield         | OpenFOAM: The Open Source CFD Toolbox
   \\    /   O peration     | Website:  https://openfoam.org
    \\  /    A nd           | Version:  7
     \\/     M anipulation  |
\*---------------------------------------------------------------------------*/
FoamFile
{
    version     2.0;
    format      ascii;
    class       surfaceScalarField;
    location    "2";
    object      phi;
}
// * * * * * * * * * * * * * * * * * * * * * * * * * * * * * * * * * * * * * //

dimensions      [0 3 -1 0 0 0 0];

internalField   nonuniform List<scalar> 
14871
(
-1.84476748792e-13
1.01332166628e-12
1.19714540861e-13
3.01440545562e-13
-7.12538374573e-14
-2.89995894095e-12
2.1163248295e-12
5.08691146943e-13
5.933892049e-13
-5.91720761589e-14
-1.07919485917e-13
-8.01008478016e-14
-6.0431862759e-15
-1.70186699477e-12
1.467759125e-12
1.69595267788e-13
1.13724810111e-13
-1.12365377489e-14
-1.55203841428e-14
-1.64121019818e-14
-8.16747795672e-15
-1.31253186306e-12
1.12989013242e-12
2.04571175833e-13
3.37449197879e-14
-1.4686047625e-14
-1.43481683386e-14
-1.84726728481e-14
-2.42906438198e-14
-9.20123316846e-13
6.8328194424e-13
4.1399185675e-13
-3.59496002239e-14
-3.33132469286e-14
-3.67630084361e-14
-4.68339913595e-14
-8.07456838479e-14
6.70939148832e-13
-2.92021656253e-13
-5.4175450484e-13
-7.64869712552e-14
-1.2150304337e-13
-1.14654559677e-13
6.15081889198e-14
1.11326919718e-13
2.42848003581e-13
1.40544160895e-13
4.26543065908e-14
7.0888865732e-14
-5.73857970326e-13
-2.30757141896e-13
3.81686262675e-13
4.34512661143e-14
6.88793855838e-14
7.32637762412e-14
7.5221709153e-14
3.48033281088e-14
1.37661878011e-14
3.32851892658e-14
2.13124187039e-13
2.06402847846e-13
-5.11911006334e-13
-4.83823408497e-14
2.35815381162e-14
4.72660511037e-14
3.66335387308e-14
1.28863128672e-14
-5.42837793497e-13
7.41518434569e-13
-1.81260474066e-13
-6.4669523876e-14
5.7997645192e-15
1.70194091048e-14
1.15438719126e-14
3.20802671705e-15
-8.60113477058e-13
8.66193847629e-13
-1.98318688368e-14
7.08231313606e-15
-3.15068381128e-15
5.17027674893e-15
1.44156696584e-15
1.73988883478e-15
-8.168102605e-13
7.58675762594e-13
1.38093753259e-14
4.20067046669e-14
-3.9622821545e-15
3.91646246663e-15
6.24350938998e-16
-1.95760181277e-14
-8.88015620493e-13
-1.09378922443e-13
-5.15826059953e-13
-2.74640420847e-14
-2.03083790979e-14
-1.30611326343e-14
1.86180304294e-13
2.30918999357e-13
5.4389950137e-13
6.32631428373e-13
-4.27960904534e-14
2.68274676649e-14
9.73764742114e-13
2.92203894986e-13
-4.66001887755e-13
-3.22644164264e-12
2.76303162983e-12
2.34768246756e-13
6.94643653817e-13
-2.09901557639e-13
-2.58037145167e-12
2.45495071377e-12
1.10999345964e-13
2.24322949569e-13
-2.81524428304e-13
-2.43094146022e-12
2.39860286699e-12
1.77138734717e-13
1.3672428681e-13
-6.23363948555e-13
-2.42610385337e-12
2.47602584462e-12
4.77234721067e-13
9.62072362368e-14
-9.84761541388e-13
-2.83457905088e-12
3.06765294534e-12
1.58212418467e-12
-8.30436537737e-13
-3.10824513857e-13
-4.70628419112e-13
1.27142263344e-13
7.57226729883e-13
-1.02915954758e-13
-7.21645169574e-14
1.11277219895e-12
2.0068662285e-12
-2.15904971275e-12
2.047968002e-12
-7.20445846335e-13
-6.94830084976e-13
-1.52111631311e-12
9.10581898081e-13
-2.02744359459e-12
1.97678476161e-12
-9.39736823909e-13
7.98137588033e-14
2.61332445878e-13
-1.96199420962e-12
1.94872006328e-12
-1.97587354894e-13
-5.04709446388e-14
3.26601715443e-14
-2.00060652056e-12
1.95287854372e-12
-1.68105813129e-14
3.18783866057e-14
-1.66766551245e-14
-1.88655240496e-12
1.73273098546e-12
2.47443561557e-14
1.45753718469e-13
1.39042915238e-13
-1.82730037445e-12
-4.72789589279e-14
-5.92561625515e-13
3.32436953833e-13
3.35366900973e-13
8.35855736e-13
8.2443848744e-13
-1.80259045025e-20
-7.29473770658e-15
9.66832330757e-13
2.90462424974e-13
-3.37660064339e-18
-3.1449449607e-12
2.72045065413e-12
-2.34759829609e-13
6.5925751278e-13
-6.19707261588e-19
-2.63561311646e-12
2.54511884108e-12
-1.10984476812e-13
2.01479371899e-13
-3.00131961033e-18
-2.59477238283e-12
2.63599072212e-12
-1.77117345345e-13
1.35902007376e-13
-1.41567333797e-17
-2.834999863e-12
3.20047917174e-12
-4.77203631437e-13
1.1173847943e-13
-2.42702802777e-17
-4.40069283362e-12
6.84907587098e-12
-1.58209633194e-12
-8.66262435138e-13
1.9979579507e-18
-2.41768595648e-12
-1.10433637255e-11
6.13163697843e-12
2.11008583951e-12
2.63860447608e-12
8.35405769492e-12
-1.16443795813e-12
-1.29742595799e-12
-1.64470371508e-12
-1.66676979219e-12
-2.39589504579e-18
-8.04083738332e-12
7.83728078098e-12
2.03558998236e-13
-7.37476647383e-19
-7.36377210189e-12
7.0423090299e-12
3.21463809469e-13
-9.95009992385e-12
-6.55536318213e-18
6.35531605217e-12
2.15908436356e-12
1.43570606349e-12
-1.08549768969e-17
-4.04077760373e-12
2.86744581346e-12
9.39768100717e-13
2.33574544529e-13
-6.0514676538e-18
-2.38160569934e-12
2.17235007127e-12
1.9761097625e-13
1.16507032881e-14
-8.27953452233e-18
-2.16923977338e-12
2.0820159589e-12
1.68474723229e-14
7.03846216891e-14
-1.28520995983e-17
-2.01357271665e-12
1.79735226064e-12
-2.47062753675e-14
2.4093958348e-13
-1.31377738845e-17
-1.88036886976e-12
4.73157939746e-14
-5.56309551443e-13
3.41513427719e-13
3.4048216901e-13
8.51830291249e-13
8.55549912322e-13
4.27952715569e-14
-6.1254701123e-14
9.78361808147e-13
2.9009763108e-13
4.65989749601e-13
-3.27643049726e-12
2.68506661203e-12
-5.08682054391e-13
6.34056190017e-13
2.09890982974e-13
-2.35858579393e-12
2.14954550613e-12
-1.69581781967e-13
1.68731086792e-13
2.8150250289e-13
-2.02929886962e-12
1.87829932806e-12
-2.04544138541e-13
7.40411772097e-14
6.23324444741e-13
-1.72301077814e-12
1.5552544749e-12
-4.13959112592e-13
-4.16090289106e-14
-6.70909527488e-13
-5.47977349952e-13
9.84712099812e-13
-1.59525001083e-12
4.09243845909e-13
2.52428812028e-13
4.64143529888e-13
7.03608624613e-13
3.10822001559e-13
-1.87780359457e-13
-5.39370996056e-14
-6.91045424959e-14
9.1380026286e-14
-1.11277811108e-12
5.69315753632e-14
2.30762801209e-13
8.13615131609e-13
9.95948303184e-14
-1.78038044886e-13
-1.46827204152e-15
-9.10597559436e-13
-5.99941424247e-13
1.0056087559e-12
5.11934215587e-13
-7.00398780097e-15
-2.61359576605e-13
-1.29680713981e-12
1.44692281661e-12
1.81283769947e-13
-7.00398701345e-14
-3.26881483886e-14
-1.55965144691e-12
1.55235445291e-12
1.98537367954e-14
2.01314056005e-14
1.66578432839e-14
-1.50175240216e-12
1.4224289511e-12
-1.37885349651e-14
7.64541427355e-14
-1.39052823493e-13
-1.56025842377e-12
1.09395103927e-13
-5.40309260691e-13
3.06871661114e-13
3.00080725667e-13
7.50870405217e-13
7.72402647641e-13
1.84475488777e-13
9.97240381186e-13
-2.17169611938e-13
2.85453762573e-13
-4.44213569845e-13
7.12516309585e-14
3.62320568188e-13
-3.15369425343e-14
4.21783802067e-14
-2.34056121927e-13
6.04277066979e-15
2.22582509955e-13
-4.69811843477e-15
1.01290141191e-14
-1.90153703729e-13
8.16355388513e-15
1.86212624782e-13
-4.15451226979e-15
-6.79139619448e-17
-1.59517846835e-13
2.42889641976e-14
1.52427834033e-13
-7.03479191532e-15
-1.01641120614e-14
8.07414770731e-14
-9.92081819912e-14
6.45984346595e-14
-2.0730803468e-14
-2.54008890307e-14
3.04670844417e-14
-4.2654195513e-14
-6.12553636415e-15
2.35135911226e-15
1.59613224087e-14
-6.38276012787e-14
-3.32825423726e-14
8.73889484503e-14
3.78588649444e-15
5.93536052591e-15
-1.27756487189e-13
-1.28897708887e-14
1.39890779211e-13
4.59549176852e-16
2.9598062926e-16
-1.54429411915e-13
-3.20849873909e-15
1.60492236191e-13
-2.36821026347e-15
-4.86063850996e-16
-1.6152948619e-13
-1.74213662283e-15
1.67658782152e-13
-3.56185402722e-15
-8.25247044626e-16
-1.86407001955e-13
1.95773717248e-14
1.74214428886e-13
-1.50801126724e-14
7.69539123881e-15
-3.42802713928e-13
-1.03787248482e-12
5.5659762336e-12
1.31592146902e-12
5.98567685278e-13
-3.43233205977e-13
-3.80371071497e-13
-3.76185848092e-13
-7.51418641322e-13
-8.10470485733e-13
-5.5558617997e-12
5.46203867674e-12
1.00723386916e-12
6.48478380856e-13
-2.18219104436e-13
-1.5877142873e-13
-5.20853895212e-12
4.90902046632e-12
4.71499510148e-13
2.0500950882e-13
-2.61108601333e-14
-1.68628479276e-13
-4.65839352563e-12
4.36607001051e-12
4.8809366638e-13
-1.03081185042e-15
1.4170422876e-13
-2.41095037001e-13
-3.98243518109e-12
3.31209703938e-12
9.76217081498e-13
-2.06488131546e-13
4.55801486071e-13
-1.36909170534e-13
-2.34400645586e-12
1.51299736494e-12
-3.85141643895e-13
-1.59890242849e-13
-1.33428176997e-13
-1.57625696356e-13
2.70041723424e-13
4.0419407426e-13
4.05282128035e-13
2.68684626606e-13
-8.31405849994e-13
8.02931957968e-14
6.81720168701e-13
4.69665558207e-13
-9.73928195447e-13
4.46644767107e-13
2.39404511996e-14
8.05453996359e-14
2.25245083873e-14
-4.40953519614e-15
2.87953326189e-13
-2.18635509401e-12
3.09137390585e-12
-1.28182795729e-12
9.32653544602e-14
7.96331722488e-14
1.69458049042e-13
-3.68090703813e-12
3.99514759929e-12
-5.32175469167e-13
-3.11563132828e-14
2.91182432045e-14
3.84183005384e-15
-4.24248801642e-12
4.36524836324e-12
-1.30771769637e-13
-2.49486504437e-14
-5.16891205017e-15
7.04488419251e-15
-4.4600336085e-12
4.43098239637e-12
6.82692250469e-14
-4.10939850553e-14
8.88814427203e-14
6.38172565939e-14
-4.17406524062e-12
4.120278386e-12
-2.28393682992e-13
-2.39342379007e-14
3.23008931803e-14
8.98487100889e-14
3.12664982837e-14
-1.01834705633e-12
-7.54847383851e-13
5.84691877683e-12
3.11732356427e-13
6.14543306916e-13
2.80686385237e-11
-2.02071697368e-18
1.63429016464e-12
-5.15584414001e-13
-4.70517909826e-13
-6.20231214753e-13
-6.04425097234e-13
-4.61141513356e-13
-4.20820825251e-13
-5.55745858604e-13
-5.56521453455e-13
-6.12880193591e-12
-6.36267028275e-12
-6.34524952255e-12
-6.66121749387e-12
3.10304598668e-11
-9.33616385728e-18
9.69820978057e-13
-4.54449158926e-13
-2.5344220512e-13
-4.99481447285e-13
-3.26405213247e-13
-6.33216480611e-13
-4.83852056467e-13
-7.03666050859e-13
-5.77099771116e-13
3.31676063865e-11
2.17296640437e-17
3.13839959527e-13
-1.51352667666e-13
1.29015353572e-13
-7.35377648071e-14
1.7964785029e-13
-6.36662078595e-13
-6.44925773068e-13
-6.12261988772e-13
-6.40976313744e-13
8.09540526825e-12
9.72268731624e-17
-7.62822856928e-13
-1.45930348282e-13
3.58072890842e-14
8.29076014351e-14
1.73715622376e-13
-1.5520518589e-12
-2.04470385139e-12
-1.47834557938e-12
-1.9801662755e-12
1.1568652413e-11
8.79596942158e-12
1.23790688379e-11
8.17866176583e-13
-2.71947989426e-12
8.14399986539e-12
2.96172812559e-12
-1.10869540891e-12
2.19487608928e-13
-7.04356090544e-13
-1.23536082262e-12
4.56691918776e-13
1.44718139576e-12
-1.83643885823e-13
4.24707785771e-11
1.74130801598e-16
3.53217639761e-12
-1.60555815194e-12
-7.34284069833e-13
-2.62160468657e-12
-1.83962814351e-12
3.79515499836e-12
3.87238350112e-12
3.69348859258e-12
3.80439015595e-12
-4.25913036236e-12
-2.22664732277e-11
-4.9063311433e-12
-2.29355372939e-11
3.69550171528e-11
1.24726380875e-16
1.56903761277e-12
-7.57748367141e-13
-2.35764778132e-13
-1.07731373592e-12
-5.33824608483e-13
1.8031805372e-12
1.52263050423e-12
1.77081807693e-12
1.45461813466e-12
3.37568461361e-11
9.65278351328e-17
1.08323309422e-13
1.92583419541e-14
1.78732215966e-13
2.51422133732e-14
1.38864337788e-13
6.86998721267e-13
6.5425747454e-13
7.37426562592e-13
6.49074711135e-13
3.1782377854e-11
1.05079476856e-16
1.11550202599e-13
2.14664124887e-14
1.83288785126e-13
1.12967311399e-13
2.30933678974e-13
2.13052644669e-13
3.56607514761e-13
3.24723642954e-13
4.19853136277e-13
7.59994342769e-12
9.65062591287e-17
-2.15004226651e-13
-2.20227612444e-13
-3.6336170019e-13
-5.0696685057e-14
-3.04693655881e-13
-2.22660461307e-13
-3.88667726582e-13
-4.62918543982e-14
-3.43210891502e-13
8.34810801146e-12
8.55720464336e-12
9.43187007052e-12
-1.36653186859e-13
-9.52494060574e-15
8.21003755427e-12
-2.47808711001e-13
-2.16099511081e-13
-9.73391491431e-13
-6.13195724931e-18
5.70690801085e-12
-3.11733535768e-13
5.78223149544e-13
2.80686591321e-11
-4.61106457842e-13
1.6342566704e-12
-6.20236239028e-13
-6.04429920942e-13
-5.15559310383e-13
-4.70502271027e-13
-6.36268278073e-12
-6.12878872736e-12
-6.66123559372e-12
-6.34525455271e-12
-4.20814247109e-13
-5.55747086554e-13
-5.56535225071e-13
3.10304417117e-11
-6.33199058795e-13
9.69757286233e-13
-4.99480137578e-13
-3.26403365369e-13
-4.54430763321e-13
-2.53430652739e-13
-4.83847815087e-13
-7.03673831373e-13
-5.77104066278e-13
3.31676321445e-11
-6.3664649164e-13
3.13767702284e-13
-7.35392526192e-14
1.79651469642e-13
-1.51342191164e-13
1.29033945715e-13
-6.44889371966e-13
-6.12259890631e-13
-6.40954711302e-13
1.15686486422e-11
-1.55201459513e-12
-7.62872903619e-13
8.29001900847e-14
1.73706462568e-13
-1.45915019205e-13
3.58360754316e-14
-2.04463678036e-12
-1.4783166324e-12
-1.98012816439e-12
8.09546402526e-12
1.23790992787e-11
8.79597314607e-12
9.01782094388e-13
-1.13316596798e-17
1.49082313298e-11
-2.9617174022e-12
-1.279634234e-12
2.22110588913e-12
-2.4195443313e-18
-1.3465775463e-12
9.84134218242e-12
3.42400683756e-12
3.42731777609e-12
9.85167145347e-12
-1.93739471174e-11
-2.02127996972e-12
-2.00845593713e-12
-2.00247276236e-12
-2.01270859422e-12
-5.55273484773e-15
2.17828393545e-18
-1.31084204031e-11
1.3119325686e-11
-5.3547264087e-15
-2.13442909669e-13
4.61806308404e-18
-1.32291671414e-11
1.33013316558e-11
1.41273777183e-13
4.24708538436e-11
3.79517590576e-12
3.53214413684e-12
-2.62154610762e-12
-1.83956879463e-12
-1.60563018707e-12
-7.34310900915e-13
-2.22663868161e-11
-4.25919837477e-12
-2.29354081393e-11
-4.90640339643e-12
3.8724485018e-12
3.69353858823e-12
3.8044784979e-12
3.69551062113e-11
1.80319367095e-12
1.56900993366e-12
-1.07728009033e-12
-5.33778589417e-13
-7.57784854559e-13
-2.35765696191e-13
1.52268698545e-12
1.77085713343e-12
1.45468210112e-12
3.3756869797e-11
6.87040529506e-13
1.08260724074e-13
2.51795923656e-14
1.38915428537e-13
1.92717586518e-14
1.78769962298e-13
6.54321084645e-13
7.37472391256e-13
6.49139351021e-13
3.1782350413e-11
2.1309389475e-13
1.11469847776e-13
1.12990885096e-13
2.30965561997e-13
2.14896392777e-14
1.83329903223e-13
3.56663659794e-13
3.24758527767e-13
4.19897482805e-13
8.3480980408e-12
-2.22623723103e-13
-2.15021227496e-13
-5.06917722446e-14
-3.04686592034e-13
-2.20205350949e-13
-3.63319386527e-13
7.59996044421e-12
9.43186725692e-12
8.55722095899e-12
-3.88625794771e-13
-4.62744000749e-14
-3.43199094779e-13
-2.29981714252e-13
6.02115230376e-18
8.54274518843e-12
2.47792894296e-13
-2.12463266417e-13
-1.07235188351e-12
7.54835481939e-13
5.99665063299e-12
-1.31591674045e-12
6.36782509015e-13
-8.36551445696e-13
-6.7746239269e-12
7.31550207136e-12
-1.00722137287e-12
8.41802101972e-13
-3.37039586468e-13
-7.33063580084e-12
7.15616908844e-12
-4.71497326309e-13
3.49810455927e-13
-7.03968395673e-14
-6.98603145912e-12
6.88776967309e-12
-4.8808967244e-13
2.01087721305e-14
2.42501799197e-13
-6.87514736539e-12
6.46848826316e-12
-9.76191492449e-13
-4.11640187375e-13
7.61170262971e-13
-5.49832035105e-12
-1.51296680932e-12
-6.46767728144e-13
2.71943596975e-12
1.24151919289e-12
8.3844486164e-13
8.41991562834e-13
1.25549306752e-12
1.13214344387e-13
7.04354123289e-13
-5.68775270849e-13
-1.59296726757e-13
-8.9496470069e-14
-1.28803819741e-12
-9.3263558163e-13
4.10170679341e-12
9.73973461559e-13
9.40188485832e-13
-1.4700140056e-13
-5.98501810092e-12
6.37930005397e-12
1.2818694013e-12
2.74063753736e-13
9.98249516436e-14
-6.70244739518e-12
6.78257659103e-12
5.32209396025e-13
-2.51045889214e-14
3.77027439997e-14
-6.92678545311e-12
7.04311015066e-12
1.3079000781e-13
-7.17068975569e-14
-2.04204630412e-14
-7.36845743523e-12
7.42440138145e-12
-6.82553975746e-14
-1.89871741195e-13
6.37394523485e-14
9.53728028988e-15
-6.96548646936e-12
6.73332273349e-12
2.28379910101e-13
-6.94929068699e-14
-1.44128956552e-13
3.42802140406e-13
-3.2739458939e-13
1.03228587399e-13
1.2754928435e-12
-1.22405609507e-13
-8.93182410533e-13
8.10459284556e-13
1.96633707987e-12
3.43251438718e-13
-1.08601737833e-13
-7.20613973896e-14
-6.18959818091e-14
-4.67778529501e-13
-9.07651419198e-13
-4.86470746764e-13
-2.96554625611e-14
1.58769826855e-13
-1.74235975866e-12
1.59877995826e-12
7.45511861328e-14
-3.23108832556e-14
-1.61997580571e-14
-1.1575109678e-14
9.70166794568e-15
1.68632558536e-13
-1.50795150941e-12
1.32965673613e-12
-1.35220591461e-14
2.34158659942e-15
5.04082139793e-15
6.10019908342e-15
4.55547026181e-14
2.41091823732e-13
-1.12852356718e-12
8.4719918343e-13
-1.01282906365e-13
3.7813090298e-14
2.781103833e-14
3.0336640303e-14
7.18839523654e-14
1.36902422824e-13
-2.77113162368e-13
2.4026409596e-13
-8.50238896811e-14
-8.69134090912e-14
-6.41229418826e-14
-8.02931786511e-14
-4.50919336029e-14
1.25783277254e-13
1.21913035555e-14
5.15335329728e-14
-6.09452374436e-15
-2.8797132258e-13
-1.51273127865e-13
4.65117316047e-13
2.76618100405e-14
-2.2254482271e-14
-1.2515183819e-14
-1.26704919805e-14
6.8962834599e-15
-1.69461645061e-13
-8.17046719351e-13
1.00875011089e-12
-2.10335831401e-14
-6.48599063699e-15
-4.77511401562e-16
-1.14094675608e-15
1.3332591882e-14
-3.83772712185e-15
-1.15401721516e-12
1.15184234542e-12
-8.49720886811e-15
7.18823592651e-16
5.17691378524e-16
-5.93008380984e-17
2.54466696244e-14
-7.03834621248e-15
-1.12472403088e-12
1.10099462934e-12
-2.41914572219e-14
1.3683270017e-14
6.06558587733e-15
9.76368416071e-15
7.22358466898e-16
-8.88853489603e-14
-5.94361953644e-13
7.37336336684e-13
-2.76677092975e-14
-2.71436136859e-14
-3.3421587928e-13
-2.61846973798e-13
5.39947163993e-12
1.24695946737e-12
1.14451200608e-14
-3.3453581973e-13
-3.63766747297e-13
-3.63510742634e-13
-3.68039297032e-13
-7.42131010268e-13
-5.4163651586e-12
5.52510039732e-12
9.6483398211e-13
3.66010864668e-14
-1.28426244128e-13
-1.47941445349e-13
-5.46999796091e-12
5.24887394133e-12
4.94423205435e-13
3.06850361881e-15
1.48962292938e-14
-2.1257944317e-13
-5.05891374549e-12
4.74894914454e-12
5.26281634208e-13
-1.86338193834e-14
1.58417225644e-13
-3.61893727533e-13
-4.33294463114e-12
3.49347907167e-12
1.07776796643e-12
-3.48259050708e-14
2.23236388695e-13
-1.33057866061e-13
-2.36742942505e-12
1.4595346471e-12
-2.05377355004e-14
-1.52916008793e-13
-1.32452990314e-13
-1.52699070156e-13
3.86606740203e-13
2.51684934296e-13
3.86769732338e-13
2.51260670511e-13
-2.2159184153e-13
6.99713472589e-14
5.935362156e-13
4.53467419389e-13
-1.00106922622e-12
1.95804709397e-14
8.77677776829e-15
6.92527453903e-14
8.07609404435e-15
-9.15254005166e-14
4.09442972981e-13
-2.47367442363e-12
3.50060282156e-12
-1.38279564675e-12
3.79496763565e-14
1.92543159151e-15
2.55277995668e-13
-4.19745188697e-12
4.53544928803e-12
-6.1848618593e-13
2.32853576129e-14
1.796498114e-14
7.94497129181e-15
-4.83388399025e-12
4.96135201137e-12
-1.60650855714e-13
7.27288216391e-15
4.84011981616e-14
-7.71845636758e-14
-5.07778128028e-12
4.98491951308e-12
1.29210854261e-13
-7.56572155454e-15
8.08283499293e-14
3.88239862685e-14
-4.64708658311e-12
4.61979859628e-12
-2.06760384885e-13
-1.6716803326e-14
2.58116518868e-14
8.03122485123e-14
2.49889630052e-14
-3.02493871694e-13
-6.91681163517e-13
5.71347126824e-12
2.66137834168e-13
1.45659327919e-14
3.24577512728e-11
-3.71251646879e-17
-1.39802995843e-12
-5.93052351994e-13
-6.08153209024e-13
-5.87653737779e-13
-6.08594383673e-13
-6.57212499016e-12
-6.94673542397e-12
-6.56614404379e-12
-6.94291184384e-12
3.69288257719e-11
-5.95330674655e-17
-8.44637738164e-13
-7.47355287166e-13
-5.79145601854e-13
-7.48463010098e-13
-5.81636917502e-13
3.98779515529e-11
-2.65029934105e-17
-3.42576853456e-13
-5.82393164053e-13
-5.60568594961e-13
-5.85239546778e-13
-5.64510986135e-13
9.39707096337e-12
8.130352026e-17
6.33276458552e-13
-1.38911031355e-12
-1.86781133208e-12
-1.39330141995e-12
-1.87364585331e-12
1.31058335587e-11
9.39719634825e-12
1.31055205672e-11
-2.71233680684e-12
7.86386475784e-13
8.34571259676e-12
3.0099493178e-12
-3.26293991886e-14
6.98878444357e-14
-6.77703099121e-13
-1.21721634196e-12
4.32706917434e-13
1.42875625955e-12
-3.64314577096e-14
4.84217796373e-11
1.51249836634e-16
-3.5838312978e-12
3.66191169243e-12
3.78049699833e-12
3.65723805827e-12
3.77620653242e-12
-5.07161343095e-12
-2.29811167519e-11
-5.10368981607e-12
-2.30253608452e-11
4.48833425394e-11
1.12024371872e-16
-1.37287694628e-12
1.7510696554e-12
1.48526296885e-12
1.7551748642e-12
1.4887471196e-12
4.19870078911e-11
4.66265209794e-17
4.3292109614e-14
7.60173129124e-13
7.16924908921e-13
7.64104189908e-13
7.20109260889e-13
4.02899874059e-11
1.77052034445e-17
-4.49734570501e-14
3.83811152899e-13
5.41177736838e-13
3.8591543101e-13
5.42623705862e-13
9.55989203798e-12
6.01064030719e-17
1.8689194397e-13
7.48545338544e-14
-2.40798832824e-13
7.5171853352e-14
-2.4261940416e-13
1.05505314773e-11
9.56055466964e-12
1.05504929973e-11
3.4173540212e-13
-9.85779851552e-15
9.51186021145e-12
-2.73254332798e-13
-1.05844910928e-14
-2.93230433051e-13
3.57298421819e-18
5.54652582671e-12
-2.66137230002e-13
1.28382633481e-14
3.24577693127e-11
-5.9305423583e-13
-1.39809761847e-12
-6.94672661492e-12
-6.57212632231e-12
-6.94291161456e-12
-6.56615234659e-12
-6.08163992073e-13
-5.87670329888e-13
-6.0861397257e-13
3.69287623487e-11
-7.47366109976e-13
-8.44676601977e-13
-5.79152329563e-13
-7.48477314293e-13
-5.81650195572e-13
3.9877827796e-11
-5.82398622391e-13
-3.42624409703e-13
-5.60550478542e-13
-5.8524423525e-13
-5.6451688413e-13
1.31058387026e-11
-1.38907636937e-12
6.33211231239e-13
-1.86775973548e-12
-1.39328228553e-12
-1.87362774293e-12
9.39708385862e-12
1.31055139443e-11
9.39716867953e-12
9.2847803511e-13
-1.52136159287e-17
1.52238730341e-11
-3.00994234899e-12
-3.65745547126e-14
6.43956466362e-13
-4.52335151613e-18
-8.58083862102e-15
3.42768186611e-12
9.88281510415e-12
3.42615999669e-12
9.88444363862e-12
-1.92339002978e-11
-2.01057049123e-12
-2.00080565483e-12
-2.01209526785e-12
-1.99910019783e-12
6.299274655e-15
-3.34340886849e-18
-1.32376279844e-11
1.32350482267e-11
-3.71617347035e-15
-3.00644673932e-14
5.57786264335e-18
-1.32716899511e-11
1.32889420296e-11
1.28068110451e-14
4.84217831148e-11
3.66191498345e-12
-3.58387361478e-12
-2.29810135354e-11
-5.07167965892e-12
-2.30251749213e-11
-5.10374228011e-12
3.78055775019e-12
3.65725061092e-12
3.77626511792e-12
4.48834053023e-11
1.75108465167e-12
-1.37292052299e-12
1.48530932824e-12
1.75519608696e-12
1.48877917757e-12
4.19869583656e-11
7.60208443201e-13
4.32977357201e-14
7.16978035745e-13
7.6412927195e-13
7.20156218335e-13
4.02898201628e-11
3.83838679152e-13
-4.49588943338e-14
5.41217305095e-13
3.85939749217e-13
5.42657946794e-13
1.05505128107e-11
7.48593528158e-14
1.86869028573e-13
9.55988234994e-12
1.05504697747e-11
9.56054568022e-12
-2.40804349338e-13
7.5174015717e-14
-2.42612384357e-13
3.80889544004e-13
-1.9789813479e-18
9.9049702412e-12
2.73246892476e-13
-8.60695599067e-15
-2.95176653621e-13
6.91684419628e-13
5.83393198103e-12
-1.24695973928e-12
1.65199922292e-14
-5.04317087306e-13
-6.73874761098e-12
7.56677522707e-12
-9.64830702494e-13
4.8081666498e-14
-2.22105810681e-13
-7.79995657191e-12
7.7571418079e-12
-4.94430567928e-13
1.19913592849e-14
5.69030900494e-15
-7.63475910635e-12
7.59020646027e-12
-5.26282600851e-13
-1.72447916172e-14
2.93159345221e-13
-7.57161976741e-12
7.00635019088e-12
-1.07775436239e-12
-3.92109632139e-14
3.9520270588e-13
-5.79388718562e-12
-1.45951887791e-12
-2.70483749319e-14
2.71232618275e-12
8.26486576906e-13
1.25948854779e-12
8.27546977855e-13
1.25940347997e-12
3.32747240413e-14
6.7770383123e-13
-5.50958731235e-13
-1.43452892732e-13
-1.65669313038e-14
-5.06469835575e-13
-1.39370786034e-12
4.52580484346e-12
1.00111216715e-12
3.51871621207e-14
-2.05032071454e-13
-6.71714193453e-12
7.24718135049e-12
1.38282976534e-12
4.32567612444e-14
-1.05403196573e-14
-7.63847179693e-12
7.76394365124e-12
6.18511894374e-13
2.67683885129e-14
4.55097659743e-14
-7.91158074329e-12
8.07940481595e-12
1.60669258452e-13
9.84280653652e-15
1.52566485554e-13
-8.45692278747e-12
8.51439084384e-12
-1.29204804334e-13
-5.9668614177e-15
1.12359553724e-13
9.88441317532e-15
-7.9185861271e-12
7.60482851198e-12
2.06748296532e-13
-1.523464832e-14
-3.02523249989e-14
3.34216385071e-13
-3.25806206065e-13
1.62819995533e-14
1.25556016631e-12
-8.95356316251e-13
-1.80004948947e-13
7.42118885656e-13
2.18811924659e-12
2.70567887409e-15
-4.83366236846e-13
-8.92551232774e-13
-4.81665089072e-13
-4.52652937002e-14
1.47953071817e-13
-2.09880082051e-12
2.00229954974e-12
-6.18650734532e-15
1.06922825655e-14
2.12588094532e-13
-1.92880535909e-12
1.71637151148e-12
-1.08465294841e-14
6.47219497296e-14
3.6189444667e-13
-1.45506703673e-12
1.04354898112e-12
-1.50983407932e-14
4.02770841532e-14
1.33051889707e-13
-2.97347823271e-13
2.3874022984e-13
-9.10925508413e-14
-2.3628803777e-14
-2.61814089784e-14
-6.99774355018e-14
-5.26348699815e-14
1.27961629584e-13
5.52645264814e-15
1.5305698342e-14
-2.52781070874e-14
-4.09460486299e-13
-3.44350636776e-13
7.60695403304e-13
1.83938268596e-14
1.11218894938e-14
-2.55294011277e-13
-1.20550365193e-12
1.43845943571e-12
1.12163380052e-14
6.34539610971e-15
-7.95076833508e-15
-1.6239378145e-12
1.62351796339e-12
2.02522333837e-15
1.82906094909e-14
7.71782135451e-14
-1.5860835308e-12
1.4975384075e-12
-6.92369973456e-15
1.38017407169e-14
-8.08282159757e-14
-6.80478855955e-13
8.00511039476e-13
-4.51212297821e-14
-7.88439605228e-15
-3.33111984261e-13
2.33591096346e-13
5.45519077764e-12
1.24761226953e-12
-5.57976283824e-13
-3.30975265859e-13
-3.5917504658e-13
-3.55155496597e-13
2.95904076621e-13
-7.44535592832e-13
-5.48165550001e-12
5.56631598883e-12
9.52666638806e-13
-5.88695611415e-13
1.25450823172e-13
-1.59963884226e-13
-5.46973091854e-12
5.22725608315e-12
4.86938023542e-13
-2.09950127093e-13
2.34310745419e-14
-2.18675772924e-13
-5.01852745437e-12
4.71072240058e-12
5.38834425682e-13
-3.57846735017e-14
-8.89770561283e-14
-3.68775989512e-13
-4.30359041712e-12
3.50244780224e-12
1.10973412296e-12
1.49161537559e-13
-1.81786829157e-13
-1.39566944512e-13
-2.39768668838e-12
1.52116738101e-12
3.50154520507e-13
-1.59172721272e-13
-1.41722430828e-13
-1.60955078139e-13
3.95712985486e-13
2.58479590917e-13
3.94559347899e-13
2.60816882585e-13
1.77845363678e-13
7.63569609562e-14
5.25434253709e-13
5.10487524686e-13
-1.04543594545e-12
-3.59270907717e-13
1.64917667096e-14
7.92560768057e-14
1.88349102775e-14
1.22517911145e-14
4.09592655726e-13
-2.46208813086e-12
3.44771988837e-12
-1.39664526417e-12
-1.0830940174e-14
-5.00489147031e-14
2.48297323399e-13
-4.10732860289e-12
4.43522302362e-12
-6.06660842134e-13
8.05180127109e-14
-3.29494302649e-14
7.95590699553e-15
-4.71986361447e-12
4.84901267895e-12
-1.43710456189e-13
3.95549149814e-14
-3.38083514326e-14
-7.31510607289e-14
-4.96594218565e-12
4.89529285972e-12
1.47091704821e-13
3.05170332669e-14
7.62261324597e-14
-5.97826171287e-15
-4.56946640287e-12
4.53448113516e-12
-1.66160704174e-13
1.50374154144e-14
2.03305297476e-14
7.79035890976e-14
1.76265902301e-14
2.71491983414e-13
-6.93258578887e-13
5.72690124825e-12
2.73000797214e-13
-5.78135450006e-13
2.79381116907e-11
-3.69921092407e-17
-4.69602217164e-13
-5.42274274243e-13
-5.53630860485e-13
-4.29420626413e-13
-4.2381994885e-13
-6.31254762808e-12
-6.6269852478e-12
-6.08656409255e-12
-6.32371105128e-12
-4.31854401252e-13
-5.73902971074e-13
-5.61796051248e-13
3.09820034386e-11
-1.42974453067e-17
-4.36751251872e-13
-7.04264743988e-13
-5.78692582123e-13
-6.39404766601e-13
-4.94091826755e-13
-2.41975529838e-13
-4.8069657783e-13
-3.12649953822e-13
3.31500365071e-11
1.06387552906e-18
-1.55942730919e-13
-6.16715863285e-13
-6.451230975e-13
-6.44121717652e-13
-6.56334370418e-13
1.21039798776e-13
-8.1982712906e-14
1.68520976567e-13
8.79192250139e-12
7.37863187743e-17
-1.66493564629e-13
-1.48389328296e-12
-1.98403942906e-12
-1.56044380483e-12
-2.06226428513e-12
1.58923451758e-14
5.35457001324e-14
1.47917053758e-13
1.23672455406e-11
8.09969279063e-12
1.15641236242e-11
-2.80269204867e-12
-7.23019303626e-13
8.22389383416e-12
3.04443333548e-12
1.04929928363e-12
-6.57662284511e-14
-6.81880115378e-13
-1.22337722635e-12
4.34476693882e-13
1.43359077669e-12
1.02956226457e-13
4.26818899507e-11
6.08718951668e-17
-2.30780619027e-12
3.68405966114e-12
3.81934646946e-12
3.85355365337e-12
3.9201335648e-12
-4.98086928332e-12
-2.3028027793e-11
-4.02051634763e-12
-2.20673275696e-11
-8.41557841372e-13
-2.53968953374e-12
-1.75709728923e-12
3.70399757741e-11
1.50609380849e-17
-6.86354655005e-13
1.79489751159e-12
1.47871206418e-12
1.84700420168e-12
1.56278251648e-12
-1.80954738505e-13
-1.0466839738e-12
-5.00431805555e-13
3.37987683843e-11
2.46083322873e-17
5.05220180729e-14
7.54233069987e-13
6.63672741936e-13
7.1381340171e-13
6.7629226334e-13
2.070012504e-13
5.36819728039e-14
1.65217423562e-13
3.18076865744e-11
2.63273585852e-17
3.62975315467e-14
3.31134910746e-13
4.2388997711e-13
2.24972598838e-13
3.64455114339e-13
1.95817406328e-13
1.27036887546e-13
2.4248424669e-13
8.55310066897e-12
3.38602202521e-17
-2.16399442263e-13
-4.52735947013e-14
-3.42090400518e-13
-2.14258772495e-13
-3.90652399286e-13
9.42314554065e-12
7.60231952637e-12
8.34361044934e-12
-3.61087249831e-13
-5.21244850279e-14
-3.05740061681e-13
-3.20360856496e-13
-1.01428985788e-13
9.01354309647e-12
-2.31524140475e-13
1.92860307034e-13
2.67376374325e-13
6.81739932672e-18
5.55725099274e-12
-2.7301255019e-13
-5.51621634282e-13
2.79380718006e-11
-5.42303749823e-13
-5.7389856378e-13
-6.62697641225e-12
-6.31256270217e-12
-6.32370343553e-12
-6.0865683618e-12
-5.5366358817e-13
-4.29436166974e-13
-4.23848986492e-13
-5.61788905135e-13
-4.69595608359e-13
-4.31862381467e-13
3.09819077691e-11
-7.04280367169e-13
-4.80679309643e-13
-5.78705777447e-13
-6.39413011856e-13
-4.94113204782e-13
-3.12631332555e-13
-4.36752272901e-13
-2.41994808823e-13
3.31498956617e-11
-6.16708010417e-13
-8.19554496645e-14
-6.45114363597e-13
-6.44122022443e-13
-6.56352073651e-13
1.68542665599e-13
-1.55949154062e-13
1.21015119633e-13
1.2367272697e-11
-1.48386900147e-12
5.3564362919e-14
-1.98402022773e-12
-1.56045102975e-12
-2.06228207499e-12
1.47928613489e-13
-1.66521802506e-13
1.58341192656e-14
8.79190950824e-12
1.15641342829e-11
8.09965287559e-12
-8.572620614e-13
-1.27844719774e-17
1.50535500209e-11
-3.04441987023e-12
1.21539723895e-12
-6.27849364657e-13
2.29499183552e-18