/*--------------------------------*- C++ -*----------------------------------*\
  =========                 |
  \\      /  F ield         | OpenFOAM: The Open Source CFD Toolbox
   \\    /   O peration     | Website:  https://openfoam.org
    \\  /    A nd           | Version:  7
     \\/     M anipulation  |
\*---------------------------------------------------------------------------*/
FoamFile
{
    version     2.0;
    format      ascii;
    class       volVectorField;
    location    "2";
    object      U;
}
// * * * * * * * * * * * * * * * * * * * * * * * * * * * * * * * * * * * * * //

dimensions      [0 1 -1 0 0 0 0];

internalField   nonuniform List<vector> 
5218
(
(0.0403255566108 0.00853782796366 0.00664818952915)
(0.0395613509679 0.00677758937031 0.00246495608503)
(0.0284319577558 0.00169150836942 0.000766640072044)
(0.0242595871211 0.00165565746537 -1.9700597652e-05)
(0.0208704845863 0.00396724521083 -0.000937836499527)
(0.0132138647753 0.00954634307516 -0.00202436883474)
(0.00261233385642 -0.00560494419459 0.00158937596274)
(0.0134292709897 -0.00428462730759 0.000294794111321)
(0.019084191822 -0.0014858555602 -9.28396234232e-05)
(0.0214394302385 -0.000441910807213 -8.86858931599e-05)
(0.0226087083644 -0.000412197837357 -1.09745332643e-06)
(0.0232130721177 -0.00102115058087 0.00013946566165)
(0.0391743255519 0.00196575545056 0.00658740047518)
(0.0440404057366 0.00564668055513 0.00398497388059)
(0.0374568168315 0.00275067979552 0.00197526724591)
(0.0363322867222 0.00274508105556 0.000611932586729)
(0.0407848241195 0.00739231693309 -0.001122879887)
(0.0570538711643 0.0271429386881 -0.00552848352087)
(0.0265649237927 0.0305391420032 -0.00183507307427)
(0.041207838435 -0.0319638087789 0.00959705291963)
(0.0353537087819 -0.0113042837328 0.00165896654343)
(0.0324847859073 -0.00276145889915 0.000261082068319)
(0.0325218991643 -0.000900146535285 3.2508005366e-05)
(0.0334081777999 -0.00111322259998 -0.000134876651353)
(0.0328819464128 -0.00190265249469 -5.1492618746e-05)
(0.0389850460934 -0.000250801157676 0.00659359940914)
(0.0431501587249 -0.00202513356442 0.00404815205415)
(0.0378236713218 -0.00105040088066 0.00195676048448)
(0.038099323048 -0.00109732302039 0.00055313058535)
(0.0469077408227 -0.00317180917895 -0.00139620827852)
(0.0860789121559 -0.0137395182288 -0.00538915283235)
(0.235140764382 -0.0662837455358 -0.0123032971256)
(0.414138152862 -0.00664180127162 0.00376472893143)
(0.380671074178 0.00771727776166 0.00183955846367)
(0.118535930439 0.0276682542227 0.00773323426295)
(0.0477112113157 0.0059132814494 0.00239634949853)
(0.0352884623215 0.00123139913304 0.000490943686271)
(0.0337566453668 0.000374393072559 0.000112561520465)
(0.0342371924197 0.000464266239563 -1.58484986072e-05)
(0.0335865200651 0.000641973992388 -0.000120720207057)
(0.0392539831425 -0.00283597506875 0.00646179462938)
(0.0443823880825 -0.00759364229184 0.00278696035762)
(0.0353269710015 -0.00318736169738 0.00119156984991)
(0.0320310239751 -0.00299820149764 0.000133564558496)
(0.0312008203322 -0.00732794453079 -0.0012850299034)
(0.0299888261618 -0.0198747881704 -0.00393177400198)
(0.00815201096072 -0.0114914772016 -0.000779136551592)
(0.0113921024831 0.0165306999621 0.003616303906)
(0.0231917278466 0.00905375091531 0.000627930369514)
(0.0269519444813 0.00273187619569 -0.000126369096371)
(0.028701467577 0.000961096767541 -0.000165522474453)
(0.0299729060485 0.00116569424992 -0.00012224011952)
(0.0302296890962 0.0023386961357 0.000509779475222)
(0.0394909947525 -0.0101227033022 0.00593726866427)
(0.0203058329472 -0.00296089299071 0.000735530085124)
(0.0127072822891 -0.000227959065231 0.000283498273608)
(0.010836845725 -0.000132079558975 -1.61478804626e-05)
(0.00955950100127 -0.000651962722136 -0.000345511202458)
(0.00576938632982 -0.0026753982743 -0.000657051776477)
(0.00176518654687 0.00228642765535 0.000311928463247)
(0.00655397020989 0.00157347768297 0.000242370356527)
(0.00881350043045 0.000730668335609 6.27321400098e-05)
(0.00983024920527 0.000450089294594 -2.07151932917e-05)
(0.0106272172518 0.000525522799789 -6.78882595075e-05)
(0.0124742036111 0.00123055633397 0.000572859639804)
(0.0583501345559 0.0234778009376 0.0100423138525)
(0.0767633396134 0.0110841328783 0.00989152662369)
(0.0650365535079 0.00489144328093 0.00337174949246)
(0.0586753789201 0.004488037934 -0.000176340148718)
(0.0514664112629 0.00884320299517 -0.00390675627814)
(0.029196444836 0.0159006944605 -0.00658533365066)
(0.016426970396 -0.0106852115308 0.0065216910396)
(0.0427084830983 -0.0102258285588 0.00205309910139)
(0.0530619600395 -0.00417075114539 9.10212070224e-05)
(0.0576269608261 -0.00156469563053 -0.000586386428633)
(0.0623886123128 -0.000725138994952 -0.00164704338262)
(0.068345388815 -0.00126273652762 -0.000979715914489)
(0.0592128485293 0.00913321997991 0.0113782539794)
(0.101310420798 0.0101223645932 0.0130656955781)
(0.11631139227 0.00821554756757 0.00817879047197)
(0.11736951902 0.00647058788665 0.00224609720921)
(0.127597179727 0.0124047647567 -0.00510297605725)
(0.136005619566 0.0430794105344 -0.0166263202458)
(0.0585101259102 0.0552040100797 -0.00806081616788)
(0.148292909604 -0.0567872985922 0.0208171350726)
(0.143590811991 -0.0221405643295 0.011470881708)
(0.131189062049 -0.00845288461479 0.00167862456524)
(0.121302753072 -0.00341309836644 -0.000394932842699)
(0.124179654741 -0.00211231086743 -0.00256332691095)
(0.124419019663 -0.00650295868675 -0.00402087890615)
(0.0587169927999 -0.00292241591081 0.0114833321537)
(0.101310228642 -0.0101225740601 0.0130655564381)
(0.11631139917 -0.00821591573554 0.00817865799922)
(0.117369313284 -0.00647077983059 0.00224595721805)
(0.127597448114 -0.0124046030558 -0.0051031656912)
(0.190473349635 -0.0205698469787 -0.0194824488748)
(0.333016099105 -0.085769233094 -0.0183473332842)
(0.63776925849 -0.0133768823065 -0.000421211509342)
(0.614490622219 0.00825613181669 0.00773294291813)
(0.148293253078 0.0567881087421 0.0208169558141)
(0.143590989658 0.0221413806899 0.0114706359057)
(0.131188748728 0.00845325241742 0.001678381679)
(0.121302577242 0.00341316274658 -0.000395072573886)
(0.124179682515 0.00211230262159 -0.00256335536447)
(0.131434310213 0.00461512537746 -0.004612975522)
(0.0591876505276 -0.01568702578 0.0109125975762)
(0.0929381216824 -0.0169184948762 0.0120248296628)
(0.086919568262 -0.00752921478666 0.00528745672375)
(0.0831727557342 -0.00498675449338 0.000311440234914)
(0.0852653340385 -0.0105396513874 -0.00611333457923)
(0.0666208349608 -0.0308471692682 -0.0106375497241)
(0.0188175186401 -0.0207036631547 -0.00409403523821)
(0.0541238915415 0.0360202034645 0.0130411083834)
(0.078613655776 0.0203270805053 0.00404641755602)
(0.0821058269001 0.00843167782985 0.000136413844658)
(0.0841231813704 0.00512723411291 -0.00110245363021)
(0.093868135375 0.00693360534743 -0.00331627209782)
(0.0972313827477 0.00720786268501 -0.00195392016377)
(0.0516180096432 -0.0185327142399 0.0053686884262)
(0.0343676617924 -0.00229798263474 0.0058501701932)
(0.0287316715115 -0.000838999786254 0.00138863273936)
(0.0253911184838 -0.00106094629483 -0.000342763007258)
(0.0200595650754 -0.0022864628713 -0.00215503299035)
(0.0164955153637 -0.00677533529787 -0.00423442908772)
(0.00841648032914 0.00547192251724 0.00223027803692)
(0.0142740886851 0.00249334337743 0.00100821173057)
(0.021050466252 0.00108678399682 0.000100228354701)
(0.0238524716215 0.000317527318338 -0.000202435079306)
(0.024486598823 -0.000453490237965 -0.000992422768054)
(0.038767731311 -0.000661684098893 -0.00153801791286)
(0.057499106886 0.0227954599157 0.00186334971165)
(0.0761894445618 0.0103666742992 0.00254648638862)
(0.067377376942 0.00533256427315 0.000901716317734)
(0.0618971109488 0.0049557057326 -0.000242037540256)
(0.0534078225765 0.00949201768022 -0.00133891538634)
(0.028723754368 0.0153221691342 -0.00171274159472)
(0.0172853373131 -0.0101783528546 0.0015409739231)
(0.0459772041583 -0.0112725185983 0.00095443794308)
(0.0578903098424 -0.00505474593807 0.000266832357927)
(0.0629554788891 -0.00202478853014 -8.88481530997e-05)
(0.0679438249887 -0.000551322408123 -0.000483741846332)
(0.0735387169622 -0.000676263632815 -0.000460265948041)
(0.0587118444888 0.00940582115654 0.00217666284542)
(0.109798563142 0.0114735364256 0.000531851770308)
(0.130462154608 0.00917487076236 0.000257739133735)
(0.133328775933 0.00640266552661 -8.81385540734e-05)
(0.143485940658 0.0118553896583 -0.000352784813675)
(0.143490140326 0.0415850544812 -0.00402411173087)
(0.0586554243513 0.0542269937003 -0.00211039417876)
(0.159595615841 -0.0571712927377 0.000391855251662)
(0.16360007801 -0.0229904759134 0.000495073096234)
(0.152252566965 -0.00941379335146 0.000348705295604)
(0.141578893125 -0.00444965782905 0.000168026158947)
(0.147201771501 -0.00350002061827 -1.56945958536e-05)
(0.141581366832 -0.00819340484786 -0.00146687127202)
(0.0582064078968 -0.00301777834332 0.00216175247548)
(0.109798679005 -0.0114740366342 0.000531764490885)
(0.130461945028 -0.0091754503785 0.000257634617423)
(0.133328660384 -0.00640310192053 -8.82300383856e-05)
(0.143485459562 -0.011855498773 -0.000352889848893)
(0.200084435431 -0.0200642859343 -0.00467483997567)
(0.334137816207 -0.0856425791919 -0.00352035398526)
(0.642567131085 -0.0134777143561 -0.000242035645344)
(0.616874345323 0.00824635121994 0.001098238417)
(0.159595624223 0.0571718504103 0.000391739215015)
(0.163600264975 0.0229911014554 0.000494978897622)
(0.152252397241 0.00941404091342 0.000348671668828)
(0.141578506543 0.00444964157776 0.000167995269632)
(0.147201366834 0.00349992556162 -1.57343591901e-05)
(0.149955655957 0.00554289523381 -0.00166523849578)
(0.058458013786 -0.0157013102788 0.00211666094751)
(0.0939940006747 -0.0187239162781 0.00303402977713)
(0.0915112590384 -0.00889835123721 0.00123073900461)
(0.0890824087517 -0.00596161184559 -0.000200662982747)
(0.0905647856188 -0.0110566877265 -0.00172126255305)
(0.0676150533706 -0.0288971959811 -0.00261034241488)
(0.0188031979038 -0.0198649703862 -0.00109495332062)
(0.0584992503889 0.0327279520364 0.00256730675259)
(0.0862107192121 0.0198872627134 0.00129010402697)
(0.0910894265814 0.00839898521795 0.000290738660021)
(0.0933157676344 0.00520560551236 -0.000177756165132)
(0.104501343633 0.00753411244877 -0.000751909627023)
(0.106706879987 0.00865523570821 -0.000826110088043)
(0.051219091233 -0.0180628575544 0.00108014588225)
(0.0356744404921 -0.00177492534363 0.00124229116824)
(0.0326681746155 -0.00100258781115 0.000377816225481)
(0.0295316737034 -0.00132806622933 -0.000170477182978)
(0.0226949039008 -0.00281033254835 -0.000683587720414)
(0.0169056799467 -0.00687301832669 -0.00133944929294)
(0.00906287657447 0.00547305886434 0.00087360606813)
(0.0170554238707 0.00319200016162 0.000446374045987)
(0.0254412628447 0.00151139779825 0.000124450721643)
(0.0288270955114 0.000462548190076 -3.44624738639e-05)
(0.0291409698393 -0.000799202987567 -0.000254730075516)
(0.0422635423023 -0.00192934839966 -0.000440865523852)
(0.0576878325585 0.0223918102319 -0.00426837195898)
(0.0765231190008 0.0101763397501 -0.00552658508875)
(0.0673823527939 0.0053203048419 -0.0024195639251)
(0.0616371270223 0.00507068165889 -0.000266612595936)
(0.0534046177797 0.00986345189492 0.00204881611225)
(0.0291040399239 0.0159715414274 0.00357633886818)
(0.0177636735371 -0.0108093318927 -0.00325510647035)
(0.0456382204716 -0.0114770870481 -0.000842125145956)
(0.0570376096841 -0.00501841860112 0.000371643530796)
(0.0620008920306 -0.00193500474571 0.000648972030022)
(0.0669396682949 -0.000416320268973 0.00117204111367)
(0.0725297397446 -0.000305124064473 0.000459873929854)
(0.0588070795657 0.00908369090736 -0.00568516396143)
(0.100729867418 0.00989273040556 -0.0121335875732)
(0.115903687812 0.00813167599775 -0.00775052990782)
(0.117105132017 0.0064940530043 -0.0023755579269)
(0.127340067945 0.012526440646 0.00447740437678)
(0.140920402879 0.04267407922 0.012840807415)
(0.0585346037888 0.0544540573535 0.00367341383517)
(0.14939370058 -0.0576072827788 -0.0216338885351)
(0.143956914496 -0.0226454657165 -0.01076363467)
(0.131233192944 -0.00871159911895 -0.00112839539408)
(0.12130533925 -0.00352576549201 0.000677076443667)
(0.124036338707 -0.00216222185245 0.00253290561664)
(0.13530417767 -0.00716076383801 0.00537727880162)
(0.0583033976081 -0.00291477019363 -0.00587255791573)
(0.100729723885 -0.00989318428848 -0.012133673857)
(0.115903466204 -0.00813216664895 -0.00775059146926)
(0.117104951596 -0.00649443605846 -0.00237561023435)
(0.127339659622 -0.0125265363423 0.00447733622875)
(0.196744410413 -0.0205055997011 0.0151187011333)
(0.333839761801 -0.0857527603075 0.0102339332197)
(0.64186593101 -0.0134578316387 0.000119801080304)
(0.616800206466 0.00824779066733 -0.00259048180359)
(0.14939422483 0.0576075476997 -0.0216339132939)
(0.143956932952 0.0226458840712 -0.0107635850481)
(0.131232990979 0.00871179824947 -0.00112826546995)
(0.121305280903 0.00352575813857 0.000677163373947)
(0.124036265395 0.00216217045766 0.00253289615314)
(0.143069216291 0.00506649454783 0.00612435536682)
(0.0586687891719 -0.0152734561935 -0.00509392037254)
(0.0935769593436 -0.0180676486971 -0.00794715186219)
(0.0899761561643 -0.0086718159368 -0.00395269423647)
(0.0871097382228 -0.0060958557524 -0.000495380244341)
(0.0888937239525 -0.0116504800875 0.00443046524165)
(0.067491500463 -0.0301647394629 0.00638126060727)
(0.0187876178284 -0.0200168236209 0.00175363752803)
(0.0580917342656 0.0340622441809 -0.00866299813444)
(0.0837410512918 0.0203845818028 -0.00303387691759)
(0.0879220710321 0.00836703828181 3.42345599387e-05)
(0.0900653540234 0.0050905486849 0.00111580884171)
(0.100559657825 0.00712215540844 0.00321601181004)
(0.10398545699 0.00756998743028 0.00167646801433)
(0.0512325638371 -0.0178282750873 -0.00124721907906)
(0.0362092257173 -0.00182045619901 -0.00332777236395)
(0.0329957850758 -0.00105768840948 -0.00127924336378)
(0.0296368823343 -0.00136052963802 -0.000138483216252)
(0.0229222564322 -0.00289081648188 0.000887972453954)
(0.0170459486731 -0.00712282186413 0.00159749138325)
(0.00923131040788 0.00568831639122 -0.00101613314667)
(0.0171495289286 0.00322940636048 -0.000104056837067)
(0.0252399535003 0.00149531098706 0.000336744026087)
(0.028573165821 0.000458817346231 0.000318572295602)
(0.0290271369337 -0.000752739375206 0.000529278843402)
(0.0420370129568 -0.00200803440387 0.000402875891105)
(0.0584286879758 0.0197726387958 -0.0164163677278)
(0.0720286812293 0.00907791055921 -0.00829387385832)
(0.0584492246835 0.00398717334288 -0.00267048044765)
(0.0517232280843 0.00389515936196 -0.000177228249262)
(0.0453778403488 0.00866370863179 0.00257929466679)
(0.0269380749277 0.0172176090911 0.00557089642216)
(0.012984309921 -0.0118357740572 -0.00521061592646)
(0.0351188886845 -0.00956449180881 -0.000724224763181)
(0.0446335295412 -0.00382733885052 0.00043313517613)
(0.0490879234839 -0.00149533461549 0.000542649181533)
(0.0532418830385 -0.000765829499221 0.000778808199669)
(0.0593641406615 -0.000697378795111 -0.000359247125639)
(0.0576385810016 0.00671911153804 -0.0175233781202)
(0.0843539284082 0.0102281375866 -0.0122288816206)
(0.0800257246176 0.00587703504309 -0.00464996529398)
(0.079914433649 0.00502862231776 0.00014483015061)
(0.0939395177837 0.012028544056 0.00683551363164)
(0.109041903828 0.0434541358571 0.0160806411474)
(0.0560148117533 0.0557618813228 0.00848103159261)
(0.102774008865 -0.0520807668805 -0.0166032391645)
(0.0882154845875 -0.0201185681628 -0.00223753969281)
(0.078835650927 -0.00579708509247 0.0016856314753)
(0.0779296760216 -0.00254565531739 0.00291332821676)
(0.0860063975059 -0.00362934074048 0.00532578523973)
(0.0866783499359 -0.00396106317287 0.00217207368103)
(0.0572355486869 -0.00211666020094 -0.017744699524)
(0.0849204307016 -0.00485138081464 -0.014005304245)
(0.08244667416 -0.00287091766351 -0.00523867490937)
(0.0845632838818 -0.00224946774348 0.000224186207773)
(0.106188211335 -0.00507941402832 0.0087176007432)
(0.156102347897 -0.0213650994324 0.0192425535333)
(0.321956525849 -0.0842672768556 0.0222404806642)
(0.63397615224 -0.0132758780524 -0.000170086980751)
(0.610176508379 0.00831064171901 -0.0108406850956)
(0.229225884433 0.0444410558489 -0.0278393131861)
(0.110972440558 0.0112579529642 -0.00783860038687)
(0.0853523583051 0.00292694608695 0.000163364205861)
(0.0819421455426 0.00137069227534 0.00234099622593)
(0.0901004192777 0.00248142251616 0.0051448869775)
(0.0897476289529 0.00174635693436 0.00269043304714)
(0.0580319518439 -0.0119243483345 -0.0170110399727)
(0.0796655764644 -0.0129526670864 -0.00989487835144)
(0.0694619590234 -0.00681675335351 -0.00417699296524)
(0.0650781124384 -0.00594713517919 -0.000833762650363)
(0.0652404671611 -0.0132042184159 0.00331677782529)
(0.0577602088627 -0.0329387072826 0.00952188171708)
(0.0183436809759 -0.0214185195915 0.00434041834751)
(0.0372892464927 0.03198533486 -0.0113193328661)
(0.055234961831 0.0162366918177 -0.00191987499546)
(0.0598610981381 0.00547663514711 0.000422291227025)
(0.0626383092849 0.0023315318701 0.000701982366503)
(0.0681795813886 0.00265521489502 0.00119265065652)
(0.0760275286592 0.00352134447209 -0.000332633415621)
(0.0525894530121 -0.016117746784 -0.00664633763076)
(0.0389567600836 -0.00215770877507 -0.00614731837093)
(0.0285374902458 -0.000866821244088 -0.00133234050955)
(0.0243020603379 -0.00100884646251 3.96316016795e-05)
(0.0193367301346 -0.00236491506086 0.00141049293812)
(0.0168105827338 -0.00790163710467 0.00344352318368)
(0.0084365587796 0.00620577267965 -0.00148321507389)
(0.0130894037712 0.00233107944012 -0.00020499209675)
(0.0192406878969 0.000983528314948 0.000241381247225)
(0.0220394962434 0.000315082869731 0.000253967899554)
(0.0231345290428 -0.00022484085656 0.000629214879037)
(0.0219427122806 0.000102013274064 0.00053356564635)
(0.0525894328631 0.0161177591766 -0.0066463004201)
(0.0489501853471 0.00623757525385 -0.00860256182697)
(0.0395004832658 0.00940896609914 -0.00613530685323)
(0.0255518064169 0.00442730049688 -0.00114028041467)
(0.0389567487491 0.00215761877572 -0.00614727159222)
(0.0322131017691 0.00112162478411 -0.00299508175733)
(0.0200033402805 0.00214776389992 -0.000983369596012)
(0.0141416277652 0.000746144323725 -0.000187975030213)
(0.0285373444211 0.000866806605927 -0.00133237393606)
(0.0262254127422 0.000804360468344 -0.000453244660117)
(0.0131270927581 0.000214905067723 -0.000307359273474)
(0.0117295573487 0.000604650006607 0.000115283727499)
(0.0243019666692 0.00100885280447 3.98214690772e-05)
(0.0221640290089 0.00145469451638 0.00063733865293)
(0.0113215318127 0.000255294498224 -2.5014490304e-05)
(0.0103267504968 0.00116056745789 0.000422896673696)
(0.0193364774831 0.00236491219486 0.00141064626676)
(0.0144720293874 0.00298315008176 0.00216669316958)
(0.00985861066301 0.000998712094003 0.000386429748592)
(0.00777606296577 0.0029955349874 0.000972646737587)
(0.016810212973 0.00790187804909 0.00344340954849)
(0.006054993832 0.00315900272637 0.000830510703202)
(0.00331098609707 -0.00320400913469 -0.00117601152949)
(0.000150797607264 -0.000586137313119 -0.000148017530216)
(0.00843685192702 -0.00620527406246 -0.00148274997699)
(0.00729288460787 -0.0021552233057 -0.000234884670355)
(0.00208698819104 -0.00235720038645 -0.000305028609428)
(0.00575814095403 -0.00116972572144 -0.00032478862143)
(0.01308956673 -0.0023310037839 -0.000204919501376)
(0.0166401056386 -0.00161981152208 0.000167766493028)
(0.00685169916816 -0.00182479095674 -0.000390344290453)
(0.00877504882404 -0.0002822648544 -4.18379025116e-05)
(0.0192407813122 -0.000983535670924 0.000241434644064)
(0.02097350308 -0.000626480454846 0.000313190392015)
(0.0092545905155 -0.000852510839855 -0.000173967364426)
(0.0101240196325 9.33649951872e-05 0.000103288001452)
(0.0220394975155 -0.000315103911196 0.000254011833328)
(0.0226406154699 -0.000103127344225 0.000365494404063)
(0.0103858071261 -0.000499112114257 -7.99856124383e-05)
(0.0108786050638 0.000302007705638 0.000189107135037)
(0.0231345070419 0.000224701148173 0.000629302443242)
(0.0239302477008 0.000624087990043 0.000941115544225)
(0.0111762779918 -0.000463800337962 -1.188047588e-05)
(0.0122189327987 0.000310956601181 0.00012687765277)
(0.021942881698 -0.000102196415938 0.000533658327759)
(0.0406154178552 0.00132323580061 -0.00155337969773)
(0.0129554559031 -0.000863263641779 -0.000474566311853)
(0.0115479858494 -0.000308716880652 -0.000314157335662)
(0.00305253241566 0.00420566863611 0.00153584288863)
(0.0577596358735 0.0329387856637 0.00952165930197)
(0.0424403181396 0.0410518453059 0.00664462968908)
(0.0134602267053 0.0102680033946 0.00201560055066)
(0.00130783185841 0.00215642514869 0.000129407801351)
(0.0300621069637 0.0204631255447 0.0038688117693)
(0.0188668855072 0.0211465619377 0.00220656259903)
(0.0183437148012 0.0214186192079 0.00434028777714)
(0.00816808556876 0.0115332754574 0.000769850172053)
(0.00300805860123 -0.00172491830787 -0.0049293427492)
(0.0189798812767 -0.00361041234412 -0.0086248783794)
(0.00178556472595 -0.00244191322168 -0.000330359894545)
(0.00677440040825 -0.0133418732589 -0.00172075695076)
(0.321956252232 0.0842674651276 0.0222405579874)
(0.601682050752 0.0479416685627 0.00417308532864)
(0.0265831110845 0.0305999436324 0.00180534978343)
(0.235047671101 0.0662862696551 0.012227386055)
(0.40182425865 0.02947186283 -0.00592032179876)
(0.633976498393 0.0132759463036 -0.00017009804006)
(0.645513094697 -0.000515476469729 -0.00794004645571)
(0.413852889798 0.00662497833697 -0.00376034081989)
(0.402377336862 -0.00052919677505 -0.00212763244238)
(0.0796290460922 -0.0588760985249 -0.0260172613197)
(0.610176001992 -0.00831056438328 -0.010840661822)
(0.315240084489 -0.0899799740266 -0.0336244932567)
(0.0199512954351 -0.0241497380244 -0.00288112743537)
(0.380479383359 -0.00771208226549 -0.00174786866074)
(0.194484190753 -0.0675209913989 -0.0148863946647)
(0.601682457212 -0.0479412388163 0.00417310177515)
(0.0560146278327 -0.0557617096507 0.00848114665206)
(0.235047428449 -0.0662860924314 0.0122273556356)
(0.401824087307 -0.0294719919672 -0.0059203261642)
(0.026583035279 -0.0306000645436 0.00180541573332)
(0.645512709055 0.000515434379782 -0.00794002185135)
(0.413852657271 -0.0066251551052 -0.00376027953718)
(0.402377474617 0.000529245635632 -0.00212755284245)
(0.315240075348 0.0899804783255 -0.0336243502029)
(0.0796298038749 0.0588769867443 -0.0260169436899)
(0.380479427016 0.00771223341266 -0.00174806682349)
(0.194484609303 0.0675214123981 -0.0148864328483)
(0.0199513182905 0.0241498998573 -0.00288081303896)
(0.0424401765344 -0.0410514131945 0.00664488937985)
(0.0269385302497 -0.0172176296075 0.00557110810666)
(0.0030524823855 -0.00420567617335 0.00153581953507)
(0.0300623989966 -0.0204629654066 0.00386883517642)
(0.0188668960084 -0.0211462926369 0.00220653754783)
(0.0134606008202 -0.0102676938853 0.00201567793521)
(0.00130766980587 -0.00215630203234 0.000129443161867)
(0.00816793651272 -0.011533207571 0.000769814583128)
(0.0189798640366 0.00361032006507 -0.00862489183487)
(0.00300777039228 0.00172486945301 -0.00492961477876)
(0.00677406204208 0.0133419089018 -0.00172056859864)
(0.0017854681022 0.00244173016555 -0.000330336258383)
(0.0489500947198 -0.00623762390609 -0.00860264405414)
(0.039500537988 -0.00940898178881 -0.00613526266649)
(0.0255516828515 -0.00442734657909 -0.00114024403601)
(0.0322131006759 -0.00112171914188 -0.00299507262629)
(0.0200033148834 -0.00214785686213 -0.000983426814913)
(0.0141416840131 -0.000746049985901 -0.000187883929241)
(0.0262255197213 -0.000804329616561 -0.000453213417623)
(0.0131271610346 -0.000214807740931 -0.000307279556374)
(0.0117294513327 -0.000604412191779 0.000115340268978)
(0.0221641590746 -0.00145470654914 0.000637121724228)
(0.011321404472 -0.000255221457678 -2.49424077381e-05)
(0.0103269177222 -0.00116058435475 0.000422826437489)
(0.014472248666 -0.00298289499337 0.00216663878537)
(0.00985883971768 -0.000998713381432 0.000386417661449)
(0.0077762450972 -0.00299547567901 0.00097250354138)
(0.00605514813375 -0.00315911042154 0.000830153405984)
(0.00331083687269 0.0032042613643 -0.00117646687656)
(0.000151386360569 0.00058560408021 -0.000148408526594)
(0.00729292982872 0.00215540070687 -0.000235117455045)
(0.00208699705967 0.0023575048791 -0.00030478088476)
(0.00575812740459 0.00116973541482 -0.000324688094104)
(0.0166399791275 0.00161991233023 0.000167714789078)
(0.00685155604959 0.00182476084211 -0.000390297191189)
(0.00877500287847 0.000282416770382 -4.17891340882e-05)
(0.020973480336 0.000626524022849 0.000313154770834)
(0.0092545049335 0.000852586747955 -0.000173869104879)
(0.0101239770077 -9.31849244743e-05 0.000103357016242)
(0.0226406737554 0.000103101058359 0.000365459641668)
(0.0103857711916 0.0004992224092 -7.99025382204e-05)
(0.0108786496492 -0.000301955841455 0.000189212183574)
(0.0239301087891 -0.000624209855368 0.000940976709132)
(0.0111762408637 0.000463705206879 -1.17372710169e-05)
(0.0122188526585 -0.000311126277276 0.000126909404269)
(0.0406157529457 -0.00132347877695 -0.00155344951698)
(0.0129553435476 0.000863096999939 -0.000474543045572)
(0.0115480827334 0.000308690145412 -0.000314144632968)
(0.0394909891112 0.0101226667972 0.00593729381428)
(0.0260803260874 0.0057070584351 0.000977538238208)
(0.05187954688 0.0182931538394 0.00797404601447)
(0.0483530341509 0.00790895854122 0.00834205676211)
(0.020305916812 0.00296093364334 0.000735455321593)
(0.0138249964636 0.000877968491105 0.0003689106071)
(0.0437793741741 0.00383345967849 0.00755183832346)
(0.0339510236424 0.00167974108631 0.00327655644134)
(0.0127072321395 0.000227754884039 0.00028357233121)
(0.0112204201991 0.000521146255676 2.59293462717e-05)
(0.0318292574767 0.00080588079969 0.00151706109341)
(0.0290360606769 0.00122712219137 0.000514741214349)
(0.0108367326046 0.000131947668372 -1.61265307561e-05)
(0.00996148441735 0.000924822579632 -0.000268836960119)
(0.0280733001296 0.000779547374305 -0.000598572403226)
(0.0259196548181 0.0021187621141 -0.00134460357866)
(0.00955935708801 0.000652074352538 -0.000345555792474)
(0.00747792612072 0.00244360701325 -0.00068701353142)
(0.024646045353 0.00220251782782 -0.00280648108326)
(0.0195372764845 0.00567671424149 -0.00379823542602)
(0.00576916238772 0.00267547479507 -0.000657075266489)
(0.0148167138733 0.00652992401894 -0.00408088569667)
(-7.73220076359e-05 -0.000533644749559 0.000207413238312)
(0.00260622087291 -0.00232602464849 0.00148880229029)
(0.00176533152703 -0.00228647569577 0.000311872076582)
(0.005468590787 -0.000921387202435 0.00025491541227)
(0.00730225561107 -0.00533777244365 0.00199277604222)
(0.0171316913366 -0.00334384453552 0.00254913559235)
(0.00655404457326 -0.00157347847474 0.000242351967202)
(0.00838293373142 -0.000139407111272 6.03063481874e-05)
(0.0196432241241 -0.00371175861499 0.000980965614728)
(0.0236195452268 -0.00110877341877 0.00116414007561)
(0.00881361224656 -0.00073054644284 6.26590349504e-05)
(0.00959354826614 0.000142277901791 -3.98134721981e-05)
(0.0246811138225 -0.00155451925505 -5.36000854747e-05)
(0.0264427337409 -0.000254639461618 0.000328245935203)
(0.00983032733172 -0.000450043936386 -2.07722918858e-05)
(0.0103141283855 0.000286656227342 -0.000105424127953)
(0.0270858433354 -0.000919638468559 -0.000673919769636)
(0.0284846007594 0.000112376285499 -0.000363184192604)
(0.0106272066523 -0.000525756615224 -6.80632406756e-05)
(0.0117328140708 5.86817324007e-05 0.000124855459723)
(0.0295172686018 -0.000776953959615 -0.00174922474157)
(0.0330134359975 0.00114433533781 -0.00164699913717)
(0.0124741083643 -0.00123061813841 0.000572740958924)
(0.0107845088682 -0.000599083473561 0.000426544303175)
(0.0341146228604 1.04419253486e-05 -0.00101258200289)
(0.0374172412309 -0.000328138696973 0.00096111725599)
(0.00128109979426 0.00208838980912 -0.000133659071927)
(0.0299885359906 0.0198750307731 -0.00393171325794)
(0.018823345281 0.0210053082376 -0.00223136663904)
(0.0260388398122 0.0159287367201 -0.00602212484032)
(0.00297524383632 0.0040549131889 -0.00163089057194)
(0.057558373815 0.0317443430811 -0.0100325133402)
(0.0423537208467 0.0407090326476 -0.00689064204729)
(0.00815201217209 0.011491522499 -0.00077924790609)
(0.0183161326466 0.0213192095716 -0.00442765118463)
(0.00150846244216 -0.00219868270759 0.0003359058803)
(0.00693212092861 -0.0124586370479 0.0011049546936)
(0.00664109804813 -0.00761899172666 0.00400329604644)
(0.0416159342962 -0.0343100126184 0.0132037973047)
(0.235140548492 0.0662839105268 -0.012303194217)
(0.40209663767 0.0295237871856 0.00592140624161)
(0.0560132262249 0.0556215674391 -0.00865453569681)
(0.322096286644 0.0842265445207 -0.0224654277332)
(0.602003921259 0.048000252317 -0.00430774471868)
(0.414138231987 0.00664186274324 0.00376476784786)
(0.402608934289 -0.000538291909432 0.00216953242892)
(0.634409859614 0.013300900247 1.82878906141e-05)
(0.6463893385 -0.000499725653167 0.00751428062957)
(0.0205786388056 -0.0231486262158 0.00242284325824)
(0.380670927077 -0.0077172395611 0.00183965382425)
(0.194360066835 -0.0669658231691 0.0160920031425)
(0.0818155577854 -0.0521229097461 0.0223591163855)
(0.611574037497 -0.00828155394052 0.0102281455452)
(0.332888836249 -0.0851015875088 0.0341749989151)
(0.402096843946 -0.0295237413585 0.00592137924312)
(0.0265649418968 -0.030539095312 -0.00183512835764)
(0.3220962706 -0.08422627987 -0.0224654782221)
(0.602004224638 -0.0480001599688 -0.00430761557316)
(0.0560131732883 -0.055621258963 -0.0086546611275)
(0.402608882944 0.000538251188109 0.00216939897495)
(0.634409495156 -0.0133011126776 1.83317245281e-05)
(0.646389531946 0.000499733865447 0.00751427843881)
(0.194359979813 0.0669660574062 0.0160919880395)
(0.0205788972427 0.0231488248825 0.00242294855335)
(0.611574089458 0.00828141157214 0.0102280392915)
(0.332888819291 0.0851020127101 0.0341748924574)
(0.0818155575807 0.0521232830574 0.0223591387545)
(0.0188233392942 -0.0210052534907 -0.00223127838447)
(0.0132140655945 -0.00954607806579 -0.00202438008712)
(0.00128111162925 -0.00208837516311 -0.000133625498088)
(0.0575589779458 -0.0317441204498 -0.0100326849697)
(0.0423537647424 -0.0407087123024 -0.00689069291976)