/*--------------------------------*- C++ -*----------------------------------*\
  =========                 |
  \\      /  F ield         | OpenFOAM: The Open Source CFD Toolbox
   \\    /   O peration     | Website:  https://openfoam.org
    \\  /    A nd           | Version:  7
     \\/     M anipulation  |
\*---------------------------------------------------------------------------*/
FoamFile
{
    version     2.0;
    format      ascii;
    class       volScalarField;
    location    "7";
    object      p;
}
// * * * * * * * * * * * * * * * * * * * * * * * * * * * * * * * * * * * * * //

dimensions      [0 2 -2 0 0 0 0];

internalField   nonuniform List<scalar> 
5218
(
1.60302158593
1.57569770265
1.57028312035
1.56657435943
1.56377827481
1.5618152532
0.0119375241419
0.0100127816368
0.00674265179354
0.00392252905705
0.0019302498651
0.00065223362693
1.5970080244
1.57451205052
1.56985876899
1.56609277755
1.56238166823
1.55722762847
1.55189251105
0.0143717249855
0.0105222129242
0.00599012451895
0.00316568736569
0.00148387326157
0.000530660069457
1.59611177308
1.57426293356
1.56978333876
1.56594450323
1.56161474751
1.55238441954
1.51339543808
0.969262772864
0.205123779651
0.0215435966673
0.0110395547013
0.00561763515797
0.00281105241069
0.00126121762659
0.000427846415005
1.59773805255
1.57506745543
1.57008954508
1.56638955781
1.56325561072
1.56011768135
1.55573423877
0.0126142765958
0.0101684255445
0.00639792443197
0.00359689227539
0.00174552780754
0.000593361577496
1.60856582429
1.5768407977
1.57068963647
1.56689056174
1.56393118236
1.56198556397
0.0117632459262
0.0105956032487
0.00753618287884
0.00446765553296
0.00223076741957
0.000769258136877
1.58012346645
1.5744377309
1.57009041333
1.56656874708
1.56406307963
1.56283548619
0.0125086698576
0.0105029248761
0.00673150221162
0.00367834757911
0.0017167874076
0.000644375480449
1.57640071173
1.57212386727
1.56873607012
1.56525224248
1.56161900611
1.55987989329
1.55548753236
0.0155716240354
0.0107783990667
0.00535453631447
0.00195943125617
0.000432099753595
0.00075632755837
1.57582407836
1.57212396713
1.56873612939
1.56525224917
1.56161895689
1.55494023419
1.51925084468
0.951549846235
0.151219279643
0.015571632935
0.0107784039798
0.00535455716247
0.00195950007095
0.000432190985095
0.000340575455129
1.57786184339
1.57403940954
1.57000241428
1.56645439589
1.56353112119
1.56137955079
1.56105134697
0.0130519477251
0.0112730188413
0.00654906183591
0.00313446007003
0.00124695264397
0.000559909781363
1.58702081151
1.57426329432
1.56999725108
1.56648095999
1.56395177609
1.56244222307
0.0122880474394
0.0105484216999
0.00732111032772
0.00423357106751
0.00203099954315
0.000334054221686
1.57830915203
1.57381316406
1.56994780966
1.56661568545
1.56433085685
1.56364059759
0.0126540001053
0.0108875506417
0.00680733326059
0.00353617337415
0.00155846684078
0.000575857963467
1.57471526122
1.57194831115
1.56874105494
1.56540095817
1.56195451362
1.56071026954
1.55817931291
0.0150398105624
0.0107959466594
0.00535811280291
0.00181560216489
0.000216976873848
0.000235039415684
1.57417525499
1.57194838679
1.56874110093
1.56540095677
1.56195446242
1.55553581457
1.52129649546
0.944990533751
0.140116561226
0.0150397795678
0.0107959173479
0.0053581206898
0.00181567260466
0.000217086015664
-0.000446810499004
1.57611634526
1.57350993947
1.56994930927
1.56658393368
1.56387295643
1.56226786426
1.56346923624
0.0128726112307
0.011721566656
0.00666400401366
0.00288855359625
0.000914415911556
0.000371358974728
1.58467108165
1.57361716558
1.56984268341
1.5665183096
1.56420252188
1.56295378373
0.0125645218227
0.0108170139318
0.00745430490901
0.00427013110964
0.00203742813484
3.17541953117e-06
1.57879267105
1.57401650408
1.57002218972
1.56661700009
1.56423091127
1.56334590834
0.0125650529613
0.0108104298994
0.00681112286482
0.00360246495601
0.00161731297725
0.00057835503219
1.57522284929
1.57212500671
1.56874778854
1.56526689536
1.56163317079
1.56024711067
1.55774688149
0.0155170736588
0.0107819605033
0.00534954235236
0.00194944926245
0.000421805381843
7.91084306825e-05
1.57468640614
1.572125072
1.56874782534
1.56526688481
1.56163310833
1.55510137008
1.52064913777
0.945799402759
0.141108132689
0.01551703319
0.0107819386889
0.00534955874382
0.00194951241532
0.000421874805159
-0.000570419505842
1.57660750947
1.57367709384
1.56999381584
1.56655537678
1.56375772111
1.56193011628
1.56309990739
0.012870298106
0.0115903516936
0.00660298187621
0.00295321621695
0.00102072771003
0.000380776098824
1.584866275
1.57386628683
1.56993597769
1.56653385013
1.5641186638
1.56281853368
0.0124842006748
0.0107542665897
0.00743771138461
0.00428649265871
0.00205412988834
-1.02455727315e-05
1.58220842897
1.57489718277
1.57023000892
1.56659571974
1.56389137687
1.56224961758
0.0124432735771
0.0102526751573
0.00674924267942
0.00384005070674
0.00184102251675
0.000608518522177
1.57856431402
1.57398178008
1.56989632986
1.56618429704
1.56261572862
1.5582865388
1.55383138582
0.0152153279852
0.0113360034585
0.00607847501055
0.00280767352209
0.00108473738429
0.000411624165337
1.57799524621
1.57375986527
1.56983515495
1.5660508363
1.56192273735
1.55365313871
1.51708760583
0.954773970785
0.15949289048
0.0220695124379
0.0120457314086
0.00581552715908
0.00244715434969
0.000804038352558
0.000225640775946
1.5799345474
1.57441549149
1.57008540534
1.56644583497
1.56341568963
1.56066844721
1.5598042591
0.0131823981287
0.010758025244
0.00639745691243
0.00333830884097
0.00149817594061
0.000524139593749
1.58818753827
1.57551499037
1.5702671829
1.56657869044
1.56386654251
1.56211542862
0.012151800954
0.0102885600133
0.00723158763657
0.00425392923427
0.00206111495876
0.000655692059159
1.58818706264
1.57927929847
1.60823677415
1.57919724299
1.57551460373
1.57259680747
1.57690260736
1.5718936336
1.57026696315
1.56829813356
1.57079885506
1.56783579584
1.56657873847
1.56510516749
1.56696447213
1.56470926838
1.56386689078
1.56295901605
1.56397922741
1.56240559355
1.56211598284
1.56196602774
0.0119049943261
0.011533391767
0.0121524409026
0.0112968731332
0.0118352874645
0.0112496572925
0.0102886738972
0.00886252359951
0.0106337200262
0.00845086583315
0.00723147877377
0.0056672724483
0.00755670859647
0.00523234437765
0.00425357218405
0.00305638461745
0.00450368841488
0.00274513612243
0.00206065766865
0.00126792297187
0.00224934354489
0.00105338963762
0.000655355488872
4.00332528978e-05
0.000720278089672
9.01027108674e-05
1.56282384282
1.56066884459
1.55957786865
1.56183883656
1.56155945346
1.56014336386
1.55581232846
1.55980473957
1.55574725521
0.0122882716345
0.0111237751307
0.0115780025488
0.0118691727514
1.51708771558
1.16121008038
1.55190309418
1.51340051486
1.17550992913
0.954774034625
0.371881212823
0.969315618086
0.393802522654
0.0095088010682
0.159492887664
0.0177530518236
0.0104910039973
0.205215432317
0.0231042742107
1.16121002591
1.55383103611
1.51340041953
1.17550991557
1.55190277092
0.371881253877
0.96931552144
0.393802620078
0.017753058077
0.00950860954806
0.205215442952
0.0231042488983
0.0104906041887
1.55957745867
1.56224910432
1.56282318629
1.56014298642
1.55581192158
1.56183832335
1.56155879571
1.55574681936
0.0111234226601
0.0122875757016
0.0118685725025
0.0115771128668
1.57927972902
1.60823721358
1.5791976672
1.5725971246
1.57690300534
1.57189389815
1.5682982235
1.57079906701
1.56783583539
1.56510495199
1.56696445694
1.56470902506
1.56295854599
1.56397890021
1.56240506445
1.56196544293
0.0119042242646
0.0115324251015
0.0112965839301
0.0118346140658
0.0112493656936
0.00886249547479
0.0106335293904
0.00845081841111
0.00566747998534
0.0075567028362
0.00523258496804
0.00305680406446
0.0045039790067
0.00274557099955
0.00126835920653
0.0022497987365
0.00105368765309
4.00939641044e-05
0.000720486765627
9.0136666678e-05
1.60856479758
1.57918783905
1.58843312769
1.57811353554
1.57683995493
1.57179281723
1.57628890311
1.57178217188
1.57068912965
1.56775229721
1.57070908727
1.56773411763
1.56689043225
1.56464884254
1.5668686028
1.56469989192
1.56393139155
1.5624375249
1.56401903335
1.56282688018
1.56198608341
1.56255045098
0.0115611056202
0.0118339243243
0.0117635486626
0.0111796172045
0.0120505480524
0.0111627259661
0.0105958638986
0.00842252363675
0.0104908032229
0.00839127596029
0.0075362718167
0.00518406779402
0.00743937949367
0.00514769411244
0.00446714062062
0.0027060004465
0.00438912645284
0.00266147853039
0.00223006871321
0.00106447541008
0.00216203069406
0.000996986067271
0.000768675194877
0.000125977806686
0.000660794398709
0.0001339649888
1.56155042744
1.56011799699
1.5558005804
1.56224422804
1.56282691516
1.5606359424
1.55956396762
1.55573451787
1.55979065661
0.0116396825815
0.0115528743037
0.0120726519377
0.0114784954173
1.51339552221
1.17547698219
1.55382439377
1.51708292714
1.16118058477
0.969262838394
0.393673641027
0.954725974844
0.37166590933
0.0101604652818
0.20512384648
0.0231249400178
0.0096349949778
0.159152375801
0.0166321620792
1.17547703407
1.55189232531
1.51708285312
1.16118059262
1.55382408221
0.393673664646
0.954725882479
0.371665918136
0.0231249127026
0.010160522071
0.159152130084
0.0166321325927
0.00963507331784
1.55580031628
1.5618148618
1.56155002032
1.56063564858
1.55956363905
1.56224380598
1.56282644825
1.55979034049
0.011552910176
0.0116394143538
0.0114786022314
0.0120725284392
1.57918874225
1.58843404802
1.57811439217
1.57179342224
1.57628966884
1.57178271245
1.56775250445
1.57070952519
1.56773431202
1.56464871256
1.56686869973
1.56469974967
1.56243715591
1.56401879084
1.56282646252
1.56254997898
0.0115607376592
0.0118336793902
0.0111793452273
0.0120501969285
0.0111625786282
0.00842233584261
0.0104906521215
0.00839130740438
0.00518439776772
0.00743945749575
0.00514806370428
0.00270673456372
0.00438967350322
0.00266217685999
0.00106516298194
0.00216280355902
0.00099765101528
0.000126146652315
0.000661394609708
0.000134078222438
1.58701991144
1.57776361338
1.58492464576
1.57673369364
0.000333555585986
0.000141834434037
-1.17142137332e-05
0.000110939365128
1.57776442196
1.58492545224
1.57673436326
0.000141971257817
-1.12577678282e-05
0.000111049371951
1.5846702798
1.57656854238
1.58463548427
1.57655198003
2.66268159799e-06
0.000106736833561
1.53155863749e-06
0.000105282381418
1.57656916766
1.584636142
1.57655251527
0.00010685546644
2.00436940953e-06
0.000105364966731
1.58486564168
1.57670743934
1.58682353866
1.57768674304
-1.07897867682e-05
0.000106542819937
0.000282734288835
0.000107053055128
1.57670792145
1.58682402314
1.57768718466
0.00010662224138
0.000283124648485
0.000107089169102
1.57781375629
1.57993422207
1.57678707602
1.60277090423
1.57918436696
1.59765423472
1.57802237206
1.57240636906
1.57441524857
1.57212957434
1.57561586718
1.5726357881
1.57503374195
1.57232034519
1.56830457262
1.57008527517
1.56817563202
1.57030967218
1.56834490421
1.57011691628
1.56819172775
1.56512691957
1.56644585591
1.56485984073
1.56661874248
1.56511971731
1.56643224917
1.56483111704
1.56294714401
1.5634158954
1.56207736707
1.56381022401
1.56270907838
1.56329638381
1.56178045488
0.0117658544278
0.0131827264766
0.0128437268654
0.0120725989348
0.0114733877437
0.012874908679
0.0121094958961
0.00850906375072
0.0107581776592
0.00850126945783
0.0101079809804
0.00847333345219
0.0103109336628
0.00830312095807
0.00518813057443
0.00639741813989
0.00470283590265
0.00680264746006
0.00528914714251
0.00644001428246
0.00489384055872
0.00273821913434
0.00333811933696
0.00228724122589
0.00396108607801
0.00285132777619
0.00360325716988
0.00256996293692
0.00115935307663
0.00149790182688
0.000928032348087
0.00193354530187
0.00119655231682
0.00173083241354
0.00108755401312
0.000142371787005
0.000523929574991
0.000147430122781
0.000610853134803
0.000131442660606
0.000564085370537
8.21388434363e-05
1.57596028693
1.57799516392
1.57558010787
1.59695216288
1.57713905063
1.59609247268
1.57673668686
1.55465153565
1.55365322666
1.54417232745
1.55724621328
1.55258500858
1.55239918268
1.54142793643
9.63189573983e-05
0.00022560748321
2.73634506353e-05
0.00050736321025
9.6829957303e-05
0.000405952051672
6.03713404279e-05
1.57558017055
1.57856450509
1.57596046195
1.5960925289
1.57673675075
1.59695242575
1.57713922871
1.54417223697
1.55828629715
1.55465124553
1.5523991169
1.54142786326
1.55724597718
1.55258475448
2.73813764202e-05
0.000411729456324
9.63386160011e-05
0.00040600665446
6.0349881402e-05
0.000507488978789
9.68947795334e-05
1.57678735302
1.58220880112
1.57781411701
1.5976545394
1.57802264203
1.60277131867
1.57918472931
1.57212976724
1.57489751423
1.57240662229
1.57503398153
1.5723205306
1.57561618062
1.57263603876
1.56817569819
1.57023018442
1.56830464426
1.57011703983
1.56819178467
1.57030983962
1.56834498693
1.56485974927
1.56659568948
1.56512675583
1.56643223018
1.56483101369
1.56661871008
1.56511955547
1.56207706544
1.5638910847
1.56294674588
1.56329617092
1.56178017503
1.56380995808
1.56270868894
0.0128435225313
0.0124427710837
0.0117654731124
0.0128744589403
0.0121091491277
0.0120718779211
0.0114730380897
0.00850120458201
0.0102525309477
0.00850896108849
0.0103107381398
0.00830300273394
0.0101078209885
0.00847318474066
0.00470296640465
0.0067492820774
0.005188293458
0.00644000252033
0.00489396016371
0.00680269891558
0.00528932351454
0.0022875008665
0.00384032958518
0.00273862118827
0.00360344123631
0.0025702479594
0.00396137557711
0.00285166847271
0.000928314667391
0.00184140865365
0.00115972686292
0.00173108819811
0.00108786528925
0.00193392171178
0.0011968937414
0.00014751810705
0.000608801301904
0.000142510316501
0.000564266824667
8.21438651433e-05
0.000611102593793
0.000131491110615
1.59141696307
1.59630956082
1.61969009673
1.59136686258
1.60828785987
1.58778786891
1.59580536846
1.58376581685
1.5793639246
1.58045849325
1.58372499743
1.57925912733
1.58305117075
1.58558624456
1.57469242659
1.57726460992
1.57736529456
1.57468901348
1.57689236464
1.57503939514
1.57504661683
1.57328460518
1.57210569912
1.57204192357
1.57326787964
1.57189278981
1.57354938536
1.5734317462
1.56971089927
1.5709512948
1.57086690745
1.5697146346
1.57080565618
1.56983349864
1.56978598483
1.5687694999
1.56791119677
1.56788613909
1.56875583415
1.56784301411
1.56884093604
1.56879763163
1.56620656462
1.56702998656
1.56701135995
1.56617383848
1.56700260232
1.56624516161
1.56622852766
1.56547247738
1.56481428223
1.56478340373
1.56538453232
1.56478920044
1.5654731839
1.56545447352
1.56358827534
1.56413383354
1.56409760117
1.56342991687
1.56415246722
1.56360930154
1.56354663932
1.56309285489
1.56271718573
1.56261394882
1.56277889412
1.56269306079
1.56305120069
1.56298375115
1.56234775234
1.56239640602
1.56224114451
1.56206182671
1.5623446639
1.56256600082
1.56223675144
1.5625972505
1.56264409371
1.56288665633
1.56248761748
0.0115616604217
0.0116226623922
0.0113770470562
0.011753250612
0.0113256920772
0.0119288245007
0.0115297935412
0.0112414535555
0.0117572505064
0.0115038070361
0.0117068500148
0.0114205499687
0.0114682181754
0.0113883540012
0.0112141605882
0.0109199592634
0.0109846273244
0.0116148846111
0.0108857180165
0.0112996984853
0.0113160104981
0.00990302248145
0.0103265293005
0.0105088191655
0.0100301605966
0.0104333979855
0.00977414708734
0.00995278937605
0.00920801964747
0.00829137900927
0.00850225802177
0.00920303360018
0.0084955106884
0.00898786924697
0.00923079968709
0.00689869903838
0.00742300260249
0.00765634323088
0.00678112004381
0.00766127272327
0.00669433527389
0.00688739322544
0.00608531401666
0.00519216360735
0.00533984169839
0.00595389520623
0.00536164241675
0.00588014583006
0.00606162000078
0.00398621637062
0.00446755587133
0.00459235582546
0.00387645378672
0.00462275589147
0.00386270337655
0.00396549043634
0.00336010271175
0.00274480624955
0.00280904006402
0.00326876153802
0.00282457012147
0.00325630144342
0.00332887238272
0.00186679117048
0.00224709339248
0.00228352023639
0.00182103482741
0.00230848086768
0.00182175563981
0.0018636351456
0.00145234004511
0.00105121671243
0.00109554339056
0.00142452508979
0.00107538397418
0.0014235644233
0.00143862134318
0.000435671734148
0.000711844649239
0.000772578802267
0.000425989485928
0.00072639499425
0.000326495744564
0.000620742050736
0.000311697183397
5.93700966918e-05
0.000150293290488
0.000320838437222
9.011377385e-05
6.68088409547e-05
0.000441166185151
1.5607166941
1.56163347685
1.56255934282
1.56102287962
1.5621005539
1.56153313704
1.56147086845
1.55704125546
1.55660756873
1.55677465881
0.0123954104636
0.0118552073468
0.0119215103874
0.0117418855137
0.0121491994833
0.0121974434369
0.0121520272658
1.54937997215
1.550658956
1.5467877931
1.53904920141
1.54931026785
1.5414996901
1.53919850103
1.48894894544
1.16925796064
1.39346540498
1.38399833413
1.49631123641
0.963585126367
0.775065454706
0.771384956244
0.38735557576
0.581601438072
0.577263287597
-0.0145745283944
0.000426406720011
-0.00107784444307
-0.0083727099963
-0.0442132843367
0.1873474901
0.054530946527
0.0525220378958
-0.0279538162441
1.4889487942
1.16925782672
1.39346531628
1.38399828117
1.49631097412
1.5493797837
1.55065863395
1.53904898475
1.54678750582
1.54149948444
1.5493100589
1.53919825896
0.963584991266
0.77506546297
0.771385032648
0.387355754542
0.581601612391
0.577263271855
-0.044213260284
0.187347522926
0.0545310084566
0.0525221741764
-0.0279536030859
-0.0145743129904
0.000426493642015
-0.00107766773206
-0.00837240967658
1.56071615909
1.56163283819
1.56102230907
1.562558678
1.56153254174
1.56209987004
1.56147032976
1.55704083318
1.5566070231
1.55677410045
0.0123945693236
0.0118543787537
0.0117409090303
0.0119208595422
0.0121965416379
0.0121487787487
0.0121507950721
1.59141741693
1.59630999881
1.59136729762
1.61969055622
1.58778829823
1.60828828163
1.59580584501
1.5837662558
1.57936434926
1.58372540621
1.5804589579
1.5830515771
1.57925955923
1.58558671885
1.57469284051
1.57726498815
1.57468934262
1.57736569194
1.57503978565
1.57689280597
1.57504703198
1.57328497128
1.57210598188
1.57326819039
1.57204220291
1.57354973539
1.57189311713
1.57343210678
1.56971109438
1.57095152919
1.56971479599
1.57086715152
1.56983368425
1.57080590843
1.56978617999
1.56876961576
1.56791125719
1.56875593911
1.56788617606
1.56884106212
1.5678430545
1.56879771307
1.56620646246
1.56702997317
1.56617376353
1.56701134529
1.56624506349
1.56700256676
1.56622843959
1.56547227803
1.56481406534
1.56538439594
1.56478311835
1.56547303793
1.56478892366
1.56545430521
1.56358785465
1.56413356294
1.56342955834
1.56409726011
1.56360896183
1.56415214731
1.56354622534
1.56309237444
1.5627166735
1.56277846223
1.56261336381
1.56305079487
1.56269244592
1.56298322062
1.56234698019
1.56239580532
1.5620611467
1.56224047253
1.56256525947
1.56234389592
1.56223615487
1.56259642652
1.56264330199
1.5628857245
1.56248709605
0.0115604350171
0.0116219679219
0.0117519125065
0.0113758605663
0.0119287047053
0.0113253551242
0.0115261560936
0.0112409751279
0.0117562584259
0.0117061545767
0.0115037197887
0.0114676017005
0.0114201594568
0.0113880684845
0.0112138364474
0.0109198229903
0.0116145608495
0.0109844479828
0.0112993484967
0.0108856705743
0.0113158532118
0.00990305703659
0.0103264157827
0.0100300184803
0.0105087357852
0.00977409098731
0.0104333944075
0.00995291207725
0.00920812187179
0.00829142568057
0.00920298110455
0.00850228199231
0.00898797694787
0.00849572311555
0.00923082488676
0.00689889599059
0.00742318270006
0.00678138417211
0.0076566710839
0.0066945036259
0.00766147540082
0.00688778548293
0.00608552416152
0.00519244254679
0.00595415142544
0.00534012454385
0.00588035988083
0.00536185659303
0.00606180213837
0.00398659675464
0.00446789075158
0.00387687949067
0.00459269731664
0.00386306003752
0.00462303562153
0.0039659965716
0.00336048950951
0.00274525782115
0.00326921386937
0.00280957234499
0.00325662077029
0.00282496217626
0.00332939338611
0.00186719237968
0.00224757798409
0.00182146958928
0.00228389821317
0.00182221150676
0.00230890144925
0.00186391716181
0.00145262711929
0.00105156671889
0.00142489419729
0.0010957421344
0.0014239253607
0.00107562117741
0.00143876252847
0.000435873647521
0.000712032337206
0.000426160392342
0.00077273088893
0.00032669466423
0.000726574197186
0.000620924183063
0.000311821368114
5.94189865242e-05
0.000320908838044
0.000150326089878
6.69094700119e-05
9.01485633852e-05
0.000441221958472
1.57936741202
1.59773751126
1.57811013476
1.58236034389
1.57810203857
1.58003628599
1.57688417213
1.57265078759
1.57506696345
1.5723159413
1.57500602924
1.57242056774
1.5744561171
1.57212698245
1.56830220445
1.57008926839
1.56815250161
1.5701973544
1.56825563267
1.57005724221
1.56813683318
1.56507974926
1.56638951773
1.56478809632
1.56654625145
1.56508304904
1.56640445005
1.56481837992
1.56268643015
1.56325577552
1.56174364934
1.56385055502
1.56290854531
1.5633749311
1.56203538319
0.0113386149287
0.0126142483063
0.0118778528092
0.0122915001902
0.0116927205496
0.0128530986122
0.0125385007868
0.00840057484806
0.0101683858682
0.00822378783268
0.0101848743695
0.00843649181457
0.010601917692
0.00842609456412
0.00523968425715
0.00639778175035
0.00487378332827
0.00667145748009
0.0051131055279
0.00635744498002
0.00468119465754
0.00282784807752
0.00359663360415
0.00257377475443
0.00377256277559
0.00268649557082
0.00332622100305
0.00228332340012
0.00121816444401
0.00174512150945
0.00111182375434
0.00180990572444
0.00116227882025
0.00150195286296
0.000942466172721
0.000154507227993
0.000593038722069
9.36555079773e-05
0.000647248336313
0.000203286690013
0.000544601664674
0.000156550073563
1.57717798933
1.59611171477
1.57675727647
1.57861396168
1.57600905741
1.57802257272
1.57560734059
1.57198318794
1.57426282557
1.57187067361
1.57400367678
1.57177448384
1.57377105807
1.57166304709
1.56793436401
1.56978327948
1.56786737894
1.56987917971
1.56790744996
1.56982495557
1.56785228301
1.56428946591
1.56594450973
1.56395861092
1.56615426958
1.56430934576
1.56603052676
1.56399619626
1.56012495296
1.56161478473
1.55806317195
1.56258433009
1.56043241689
1.56190063693
1.5584469928
1.55257368541
1.55238450473
1.5414199208
1.55826574196
1.55463919061
1.55363722338
1.54416304313
1.54677910241
1.53903960639
1.53919087759
1.54937342022
1.55065143992
1.54930409104
1.54149228835
0.00076754701891
-0.00745946340326
-0.013619944655
-0.0012021002693
0.012810915092
0.02154350084
0.0149892029219
0.0145598407009
0.013528436947
0.022403573137
0.0162312267196
0.00805380581502
0.0110394670279
0.00787028909792
0.0111615831864
0.00838700931764
0.0120490310803
0.00843889494504
0.00439667485255
0.0056175693455
0.0039822266029
0.00605952692548
0.00419194707313
0.00582666079923
0.00384105393468
0.00222067838858
0.00281102102154
0.00193964863371
0.00282122230361
0.00178315162559
0.00247257173979
0.00145900022882
0.000966107738651
0.00126112431163
0.000809961072005
0.00110284880986
0.000623320938919
0.000828681300491
0.000393080339304
0.000106680326485
0.000427783755524
6.72249467706e-05
0.000426164839531
0.000103232982099
0.000240463128484
3.37791060895e-05
1.57675739163
1.59700837816
1.57717832461
1.57802268538
1.57560744081
1.5786142893
1.57600935362
1.57187076611
1.57451233992
1.57198341244
1.57377114486
1.57166312072
1.57400392548
1.57177468318
1.56786741276
1.56985893458
1.56793443945
1.56982501776
1.56785230868
1.56987932903
1.56790753258
1.56395858952
1.5660927916
1.56428942132
1.56603053551
1.56399616298
1.56615427901
1.56430931155
1.55806312724
1.56238156323
1.56012480835
1.56190059643
1.558446935
1.56258423567
1.56043226776
1.54141984073
1.55722745278
1.55257347358
1.55363715848
1.54416296728
1.5582655547
1.55463898621
0.774986576207
0.963531608997
0.771302610202
0.0544760739271
-0.0276680335561
-0.0440174135696
0.187206856617
0.0523929929317
0.0149892186324
0.0143717132163
0.0128108784065
0.0224036437424
0.0162313462439
0.0145598436199
0.0135283418209
0.0078703377622
0.0105221798974
0.00805379528504
0.012049072787
0.00843886157918
0.0111615588053
0.00838701131725
0.00398228136163
0.00599017536171
0.00439681989003
0.00582671203636
0.00384105569898
0.00605957536045
0.00419204778741
0.00193971847957
0.00316588635892
0.00222096870057
0.00247264631073
0.0014590275209
0.00282135582796
0.00178341628599
0.00081005814796
0.00148416260111
0.000966409646455
0.000828751048634
0.000393146586532
0.00110308531749
0.000623575794827
6.72235274324e-05
0.00053088063167
0.000106698967389
0.000240476732389
3.37992948604e-05
0.000426326865871
0.000103302708451
1.5781106865
1.60302249521
1.57936814295
1.58003681734
1.57688468086
1.5823610806
1.57810274591
1.57231633882
1.57569834669
1.57265129711
1.57445656116
1.57212734674
1.57500665216
1.57242106793
1.56815267163
1.57028349531
1.56830241489
1.57005751075
1.56813698119
1.5701977149
1.56825583704
1.56478803244
1.56657443376
1.56507967733
1.5664045028
1.5648183157
1.56654630475
1.56508296351
1.56174340442
1.56377807765
1.56268610695
1.56337477767
1.56203514255
1.56385034311
1.56290821484
1.55659624385
1.5570270921
1.55676593951
0.0118778391716
0.0119373687512
0.0113384505973
0.0128531426276
0.0125385032546
0.0122914058207
0.0116926421894
0.0082238243659
0.0100126671742
0.00840048623249
0.0106019195142
0.00842610130647
0.0101848230267
0.00843643031897
0.00487401693995
0.00674273840141
0.00523989769949
0.00635753824255
0.00468133563196
0.00667148436763
0.0051133170637
0.00257415942277
0.00392296710771
0.00282840171563
0.00332647634426
0.0022837080768
0.00377295442796
0.00268700012721
0.0011122162999
0.001930845704
0.00121871903048
0.00150231692707
0.000942877591215
0.0018104338851
0.00116284292527
9.36295707714e-05
0.000652663400644
0.000154650105676
0.000544879300529
0.000156658249668
0.00064761737673
0.000203466864056
1.59167749035
1.62015448967
1.5966524195
1.59633999781
1.60876784751
1.59202916598
1.58810389511
1.57462409478
1.57739908018
1.57506073465
1.57491978665
1.5771521474
1.57493336433
1.57705659892
1.56961668701
1.57075497169
1.56967596167
1.56964777327
1.57080580953
1.56969455809
1.57072583671
1.56610322789
1.56690735992
1.56612066248
1.56610921587
1.56694080072
1.56616276535
1.56688771745
1.5633932649
1.5639732966
1.56341835507
1.56345274957
1.56408331283
1.56359813068
1.56398811634
1.56206505189
1.56216527015
1.56219708116
1.56232849549
1.56246236698
1.56258126783
1.56227441382
0.0115886349253
0.011494689582
0.0113712711967
0.0112754261782
0.0116616857956
0.0113733804765
0.0114322013909
0.0100016220253
0.0105820429217
0.0100100059324
0.00998781868823
0.0103537148141
0.00979808974098
0.0105360448205
0.00674198336983
0.00765558668999
0.00685525707691
0.00687036034634
0.0074350033566
0.00667086536956
0.00766006666271
0.00382845095311
0.00454020621821
0.00389905345802
0.00390422006763
0.00443297024028
0.0038040541903
0.00454300847972
0.00180075116137
0.00224790131346
0.00183250619655
0.00181756714247
0.00220931070442
0.00178096864338
0.00223205424534
0.000524484132982
0.000825647385809
0.000630835238458
0.000527321463867
0.000750063566111
0.000450923723312
0.00080191901095
1.57426261138
1.57214252384
1.57385311845
1.57193967872
1.56999687339
1.56813407411
1.56990303597
1.56811304832
1.56648091552
1.56509436006
1.56650113304
1.56517203383
1.56395203523
1.56322616557
1.5640979763
1.56349022427
1.56244270856
1.5628124007
0.0120168022647
0.0121528040019
0.0122883181198
0.0116456087035
0.012574006734
0.0118772919226
0.0105484263767
0.00905655321602
0.0107350039415
0.00920423507784
0.00732098362889
0.00570007077428
0.00740627229986
0.00575116377328
0.00423313380379
0.00302861746392
0.00425301512272
0.00303799293539
0.00203038383322
0.00134134373
0.00202733209436
0.00132922955686
1.57715865869
1.57786133964
1.57595421112
1.57885506787
1.57642462178
1.57664254223
1.57528213686
1.57217232128
1.57403901649
1.57190611809
1.5740331844
1.57199071849
1.57368684105
1.57178183696
1.56822251286
1.5700021833
1.5681305032
1.57000901056
1.56821901663
1.56998286622
1.56818107118
1.56517834259
1.56645435573
1.5649833345
1.56659729233
1.56527055289
1.56653915592
1.56513646154
1.56336511942
1.56353127429
1.56270591235
1.56421898617
1.56369131571
1.56374388423
1.56314255118
1.56357546789
1.56137983849
1.5604136585
1.56333731235
1.56498732518
1.5619201283
1.56201796382
1.56105181505
1.56309424759
0.0122696647863
0.00942822199088
0.0121196493183
0.00876767845143
0.0122367104156
0.013051917726
0.0141307459284
0.0126499371748
0.0126205437598
0.0129296301406
0.0145659286498
0.00866216487827
0.0112730450306
0.00919153557413
0.0107854124992
0.00885915635645
0.0115674024613
0.00944203131782
0.00508473528716
0.00654904665342
0.0047581167885
0.00678202969281
0.00505428918214
0.00658960296385
0.00469208482014
0.00257682302471
0.00313426687066
0.00203854662146
0.00357914384046
0.00246931784025
0.00294754245852
0.00181389257735
0.00113026970566
0.0012466510458
0.000755577375613
0.00160459817829
0.00104068160052
0.00102092954218
0.000560166751483
0.00027176531276
0.00055963527041
0.000224816604435
0.000583085527705
0.000250446773065
0.000385709063516
0.000170252320526
1.57490342738
1.57582397496
1.57452088499
1.57524198023
1.57440917404
1.57469792584
1.57410199666
1.51925093714
1.15899444334
1.55774338989
1.52064663867
1.15523444557
0.951549946838
0.365649046776
0.945797236054
0.356044769706
0.00551127652191
0.15121914969
0.0118802211505
0.00397753838593
0.141180836324
0.00923187099963
0.000208555195173
0.000340526580604
9.30287548043e-05
8.50036363045e-05
6.63692363698e-05
-0.000565641486941
-0.000100369541692
1.57452097759
1.57640099439
1.57490368456
1.57469803129
1.57410206069
1.57524223732
1.57440939771
1.15899437355
1.55548726467
1.52064657782
1.15523435716
1.55774312753
0.365648886933
0.94579705538
0.356044736724
0.0118802158875
0.00551131964235
0.141180812067
0.00923185418782
0.00397761422915
9.30326457787e-05
0.000756426501653
0.00020860331977
-0.000565620897518
-0.000100369357949
8.50154386238e-05
6.63787766397e-05
1.57595466805
1.58012414829
1.57715930979
1.57664298291
1.57528254815
1.57885570364
1.57642520702
1.57190641509
1.5744382894
1.57217277311
1.57368716658
1.57178209307
1.5740336972
1.57199112187
1.56813063868
1.57009073595
1.56822268985
1.56998306706
1.56818118155
1.57000930898
1.5682191863
1.56498328798
1.56656879942
1.56517825108
1.56653919477
1.56513641021
1.56659734001
1.56527047174
1.56270571587