/*--------------------------------*- C++ -*----------------------------------*\
  =========                 |
  \\      /  F ield         | OpenFOAM: The Open Source CFD Toolbox
   \\    /   O peration     | Website:  https://openfoam.org
    \\  /    A nd           | Version:  7
     \\/     M anipulation  |
\*---------------------------------------------------------------------------*/
FoamFile
{
    version     2.0;
    format      ascii;
    class       surfaceScalarField;
    location    "7";
    object      phi;
}
// * * * * * * * * * * * * * * * * * * * * * * * * * * * * * * * * * * * * * //

dimensions      [0 3 -1 0 0 0 0];

internalField   nonuniform List<scalar> 
14871
(
-1.81159180984e-13
1.01026200274e-12
1.21973427652e-13
2.98923754497e-13
-6.17231857709e-14
-3.21963164188e-12
2.48291307258e-12
4.68057615702e-13
5.51200673789e-13
-4.56232511951e-14
-1.0185111239e-13
-7.33419002393e-14
-1.03572537954e-14
-2.03043613972e-12
1.77102309734e-12
1.61908685049e-13
1.50641577608e-13
-8.99898053694e-15
-1.84627303007e-14
-1.53183341912e-14
-8.83122531511e-15
-1.61878696715e-12
1.51146644841e-12
1.47994544054e-13
4.08914635669e-15
-9.19226909493e-15
-1.3211287486e-14
-1.35284934672e-14
-2.45395394847e-14
-1.41042982763e-12
1.26996157881e-12
3.79152653478e-13
-1.1430024871e-13
-2.7314152121e-14
-3.4116574787e-14
-3.84139969962e-14
-7.07218253319e-14
1.04371938345e-12
-2.73192705178e-13
-1.04085740271e-12
-7.18259481537e-14
-9.55397914027e-14
-9.86147117093e-14
9.68947268613e-14
1.31951312578e-13
2.24759689542e-13
1.53426634704e-13
1.91734230858e-14
1.93808755522e-14
2.2005101037e-13
-5.04613512645e-13
9.59817161728e-14
2.2071867957e-14
2.46550277898e-14
3.05001624036e-14
2.14913851268e-14
2.54411548141e-14
2.58653650583e-14
1.98246172588e-14
-6.36543610469e-13
9.65875961076e-13
-3.51997159391e-13
-7.96566441587e-14
1.81779956189e-14
3.34432212241e-14
3.08755394459e-14
1.9671767262e-15
-1.19064614274e-12
1.32034818582e-12
-7.41132446295e-14
-7.24351486945e-14
1.52169189246e-15
7.22360137926e-15
6.13356858625e-15
-2.83492382485e-15
-1.39077196632e-12
1.41827757904e-12
1.70406851236e-14
-3.53872144776e-14
-2.62278982862e-15
-2.00072022806e-15
-1.70089396168e-15
-1.96081289288e-15
-1.42621352646e-12
1.42254384837e-12
2.14049113255e-14
-1.02763343274e-14
-1.58942017078e-15
-2.36350142217e-15
-1.54530156207e-15
2.65726968497e-15
-1.42526173566e-12
-1.62368307045e-14
-3.28653592419e-16
6.3770756825e-15
2.13888648165e-15
1.87581408599e-15
2.31808615217e-13
2.60279688457e-13
4.35567470394e-13
5.01120641687e-13
-3.89223271701e-14
2.59869524891e-14
9.72773482205e-13
2.90161906788e-13
-4.03447172407e-13
-3.26594622397e-12
2.8335941004e-12
2.18317963269e-13
6.17481332511e-13
-1.86607477888e-13
-2.5762228232e-12
2.44034407167e-12
1.11287600174e-13
2.11198629264e-13
-1.95378059533e-13
-2.39524967061e-12
2.42928533441e-12
1.28819656206e-13
3.2522739632e-14
-5.31237680925e-13
-2.56069545878e-12
2.82917362609e-12
4.1062326657e-13
-1.47863752944e-13
-1.70014992396e-12
-3.28930537031e-12
3.90485212863e-12
1.71962934195e-12
-6.35026176354e-13
-3.53682441549e-13
-6.01116343733e-13
2.89157378115e-13
7.36751451713e-13
-7.11100527609e-14
-1.73490774677e-13
1.45543204109e-12
2.29346866496e-12
-2.75901917399e-12
7.78136320323e-13
-5.04198053102e-13
-2.75654532572e-13
-8.14674540823e-13
5.97517836468e-13
-2.30293329087e-12
2.22356902054e-12
-5.86825025887e-13
6.86714609994e-14
1.09072805146e-13
-2.16081646435e-12
2.13201992513e-12
-8.08950579151e-14
6.18792194203e-16
-2.32406657101e-14
-2.12863021831e-12
2.12623290241e-12
2.06369329908e-14
5.00104842877e-15
-2.90286637917e-14
-2.13010396977e-12
2.11764586445e-12
2.38633596037e-14
1.76234094148e-14
1.14278216244e-14
-2.11418684467e-12
2.44497252072e-15
1.89869499531e-15
3.52415986667e-13
3.59796407082e-13
7.02667180781e-13
6.8353476975e-13
5.19640774055e-19
-7.60353142019e-15
9.67418377454e-13
2.90184634326e-13
6.4041467754e-18
-3.21907770111e-12
2.82852351009e-12
-2.18323002197e-13
6.08870788863e-13
4.92542909811e-18
-2.62738493838e-12
2.53765011198e-12
-1.1129117462e-13
2.01021075601e-13
1.34635662785e-19
-2.5476761294e-12
2.66132824622e-12
-1.28823023987e-13
1.51707726349e-14
-2.22910121922e-18
-2.9514523407e-12
3.58148571495e-12
-4.10622973487e-13
-2.19408171651e-13
-5.56303390366e-18
-4.79270430089e-12
7.14079031069e-12
-1.71962622717e-12
-6.28454219621e-13
-6.45550007849e-18
-1.43595049071e-12
-1.15249659339e-11
5.642580364e-12
2.09994360901e-12
2.67146277049e-12
8.23274152145e-12
-1.21901174732e-12
-1.21654715858e-12
-1.52855237835e-12
-1.72169447566e-12
-4.01013684914e-19
-7.6304083099e-12
7.56896261491e-12
6.14460960624e-14
-7.8731291517e-19
-7.17152301617e-12
6.69739543164e-12
4.74128371778e-13
-9.73287273789e-12
1.72278574769e-17
5.87036661446e-12
2.75902875163e-12
1.10346014333e-12
1.52301084078e-17
-3.87562829523e-12
2.96206022185e-12
5.86833696737e-13
3.26719148171e-13
9.17475787296e-18
-2.51378784608e-12
2.3319502101e-12
8.08964660536e-14
1.0093199565e-13
2.30580607984e-19
-2.26348719519e-12
2.23854496845e-12
-2.06508558072e-14
4.55928518448e-14
4.41031752273e-18
-2.23882466758e-12
2.2227941312e-12
-2.38771265165e-14
3.99032524893e-14
1.32859163028e-18
-2.21846191494e-12
-2.4558630061e-15
2.20143116493e-14
3.73236829423e-13
3.71152121648e-13
7.24537526997e-13
7.29974633714e-13
3.89241181075e-14
-5.68720967173e-14
9.77855784629e-13
2.90092203643e-13
4.03458360557e-13
-3.32351653704e-12
2.78238594414e-12
-4.68058919515e-13
6.05731151703e-13
1.86613986045e-13
-2.42794043334e-12
2.21650948226e-12
-1.61910102825e-13
1.86727067888e-13
1.95379934034e-13
-2.10105733255e-12
2.04175055417e-12
-1.47995353402e-13
1.19221978434e-14
5.3123256966e-13
-2.02281543783e-12
2.01776571758e-12
-3.79154843099e-13
-1.47028006276e-13
-1.04371575335e-12
-4.27878718925e-13
1.70013881298e-12
-1.99556061263e-12
3.98588217555e-13
2.83829811029e-13
4.48724214919e-13
6.35873395918e-13
3.5368183832e-13
-1.783213393e-13
-1.31368817417e-13
-4.39916815802e-14
-1.44274117448e-14
-1.45541421915e-12
7.49219977234e-13
5.04626374461e-13
2.9495382312e-13
-6.78497192933e-15
-5.10829503101e-14
-2.10926454954e-14
-5.97500024385e-13
-1.23056357119e-12
1.52019514939e-12
3.52007911755e-13
-4.41394649816e-14
-1.0906343049e-13
-1.69443839679e-12
1.78812634921e-12
7.41219973609e-14
-5.8746519325e-14
2.32380252419e-14
-1.84462570249e-12
1.86604248804e-12
-1.70541330004e-14
-2.76006779355e-14
2.90286326748e-14
-1.87587592323e-12
1.8690846383e-12
-2.14177903644e-14
-8.19557421056e-16
-1.14248143093e-14
-1.86734696378e-12
1.62304721428e-14
4.6489735771e-15
3.24506472309e-13
3.0988661805e-13
5.93209116291e-13
6.30289059882e-13
1.81160284063e-13
9.98955868236e-13
-2.17166600828e-13
2.87050469128e-13
-3.72700547229e-13
6.17255420518e-14
2.96232548225e-13
-3.02301695577e-14
4.49731109718e-14
-1.82261815473e-13
1.0358252937e-14
1.67448286004e-13
-3.74819728308e-15
8.20404971342e-15
-1.42537949368e-13
8.83145848643e-15
1.37293752349e-13
-2.70966641729e-15
-8.77578673027e-16
-1.23743890545e-13
2.45399865944e-14
1.1526339024e-13
-7.47266478249e-15
-8.58733738648e-15
7.07199726912e-14
-7.82819664228e-14
5.07259396938e-14
-2.16731961719e-14
-2.14915990035e-14
2.2091586213e-14
-1.91722392162e-14
-1.44772674732e-14
4.85601082846e-15
6.70238270997e-15
-4.00774854575e-14
-1.9824201306e-14
5.84516645727e-14
5.69961889439e-15
-4.24912753188e-15
-1.03160235031e-13
-1.97141758656e-15
1.10923381048e-13
-1.8016147329e-16
-5.61212516896e-15
-1.25757321632e-13
2.83614803965e-15
1.27817144814e-13
-1.63734224836e-15
-3.25998846943e-15
-1.30321801371e-13
1.96131671101e-15
1.30843657751e-13
-1.24188454198e-15
-1.24317663431e-15
-1.32702576596e-13
-2.65722078191e-15
1.33097868256e-13
-2.58677519211e-16
2.51814592225e-15
-3.30104456579e-13
-1.0259035621e-12
5.66839975485e-12
1.1441994066e-12
6.17988650635e-13
-3.28495515153e-13
-3.74859064594e-13
-3.71224980609e-13
-8.45754506605e-13
-4.97223545007e-13
-5.70085942557e-12
5.32605275783e-12
1.00860015773e-12
7.09184561448e-13
-2.79426671719e-13
-1.83712009419e-13
-5.01613771849e-12
4.76267842854e-12
4.42947653979e-13
2.73650317336e-13
-4.96798906898e-15
-1.34289364751e-13
-4.55348890589e-12
4.33638324314e-12
3.49303950894e-13
7.05906597475e-15
2.20381012708e-13
-2.85150001367e-13
-4.04516695926e-12
3.56381097495e-12
7.62998781883e-13
-2.16873808664e-13
4.74175072915e-13
-1.52015363038e-13
-2.79801346633e-12
1.87875422032e-12
-4.43151975698e-13
-1.60337305278e-13
-1.5432380123e-13
-1.61000787815e-13
3.12722411032e-13
4.40449897397e-13
4.47312322064e-13
3.15429296389e-13
-2.24996054873e-13
5.6109490302e-14
-1.45481747734e-13
1.02767602e-12
-1.16568452104e-12
2.44456387813e-13
7.69785721378e-14
5.38783111526e-14
7.70629529184e-14
1.11060258701e-13
4.96323918274e-13
-2.24919585434e-12
3.13932841783e-12
-1.44514204002e-12
-5.23746995597e-14
1.38105107881e-13
1.83563560428e-13
-3.76709775469e-12
4.12326068216e-12
-5.66554883254e-13
-1.11276712282e-13
8.1846735271e-14
2.78413480794e-14
-4.33350319323e-12
4.42956604851e-12
-1.29968560469e-13
-7.57823783029e-14
3.87130124708e-14
-2.3332007973e-14
-4.47706760895e-12
4.49040672746e-12
1.21900637728e-14
-4.09101868663e-14
9.3266653547e-15
1.42484190034e-14
-4.52308000662e-12
4.55159421714e-12
-4.31917829861e-14
-1.72839299624e-14
1.0702518488e-15
7.56092333904e-15
-2.453535054e-16
-1.06489975916e-12
-7.35784880313e-13
5.79865636602e-12
3.39770936028e-13
6.62257337203e-13
3.17400425464e-11
-2.60874201237e-17
1.73818587107e-12
-9.81640831576e-13
-7.19784482701e-13
-9.82240336294e-13
-7.00141129589e-13
-9.69378012032e-13
-7.32228781717e-13
-9.84497540225e-13
-7.2323453245e-13
-6.66641894684e-12
-6.63524389417e-12
-6.70753746147e-12
-6.67586162954e-12
3.40974929738e-11
-8.74466437634e-18
8.2498750236e-13
-3.99406743271e-13
-2.53904452567e-13
-3.97608089678e-13
-2.42114488974e-13
-5.12519731439e-13
-4.19844634326e-13
-5.32516051729e-13
-4.24531964963e-13
3.61018801839e-11
-1.84717601882e-18
2.7629584209e-14
-5.48422301983e-14
5.25913412301e-14
-3.30030082808e-14
8.58864039173e-14
-4.54151031289e-13
-5.71797866875e-13
-4.74942080982e-13
-5.81729030958e-13
8.60907206219e-12
1.93581899352e-17
-9.29644780073e-13
2.99069262126e-13
5.40953529297e-13
4.42251800029e-13
5.91953078487e-13
-1.11185560452e-12
-1.59537467697e-12
-1.14854208355e-12
-1.61700248344e-12
1.12541990892e-11
9.00493149719e-12
1.17619042919e-11
1.0190591447e-12
-2.88509696619e-12
8.36099565721e-12
2.89981939498e-12
-7.85687447369e-13
2.45273690711e-13
-8.43551483632e-13
-1.38096765098e-12
6.39774548913e-13
1.54935203326e-12
-2.09880848172e-13
4.70640030733e-11
-5.09845307072e-17
3.29066040357e-12
-1.63004024232e-12
-6.92704899906e-13
-2.71397139837e-12
-1.70904479206e-12
3.25771346805e-12
3.73463319595e-12
3.28521060161e-12
3.95206822092e-12
-6.18452649751e-12
-2.28340500671e-11
-5.95037876562e-12
-2.28695144856e-11
3.86643021269e-11
-4.03423974688e-17
1.50548255541e-12
-2.75950085022e-13
-9.40203470188e-14
-6.58538754049e-13
-3.7195273032e-13
2.1859859833e-12
1.754393938e-12
2.40225403382e-12
1.95215129348e-12
3.51763450907e-11
-2.60625251472e-17
5.54861292143e-13
3.70714735856e-15
1.61125264469e-14
-9.51610163911e-14
-3.70562588169e-14
8.2369943381e-13
5.6955690942e-13
9.6887230849e-13
6.83414849776e-13
3.41556065491e-11
-3.43619202685e-17
2.00010358008e-13
2.30011673854e-14
8.13490358094e-15
8.63650418936e-15
1.06767249056e-14
2.07019286274e-13
1.13341709863e-13
2.8248475387e-13
1.67485215204e-13
7.84510867493e-12
-3.05443583207e-17
6.23196955781e-14
2.18353300542e-15
-5.24792235868e-15
7.93544375594e-15
-8.62545851791e-15
7.37952506063e-15
5.86652141244e-15
3.58423246161e-14
-3.27030073172e-15
8.24907127488e-12
8.74389342806e-12
9.21315294676e-12
6.18373031212e-14
9.50044049217e-14
7.68328622977e-12
-1.89274618814e-14
2.39225858387e-14
-1.06054945787e-12
6.58657567839e-18
5.74400456693e-12
-3.39777053593e-13
6.56315359023e-13
3.17400508772e-11
-9.69392745331e-13
1.73819318122e-12
-9.82237282814e-13
-7.00136021247e-13
-9.81658096693e-13
-7.19796080994e-13
-6.63524108965e-12
-6.66643661771e-12
-6.67585413958e-12
-6.70755289607e-12
-7.32232153282e-13
-9.84505079431e-13
-7.23233966364e-13
3.40975128935e-11
-5.1252619638e-13
8.24990076915e-13
-3.97607286765e-13
-2.42106506061e-13
-3.99417542812e-13
-2.53904458625e-13
-4.19839878076e-13
-5.32522393045e-13
-4.24526902755e-13
3.6101898466e-11
-4.54146814587e-13
2.76360967946e-14
-3.30024120039e-14
8.58955971747e-14
-5.48395380433e-14
5.26023704977e-14
-5.71784045684e-13
-4.74945585951e-13
-5.81720403938e-13
1.12541974784e-11
-1.11184555533e-12
-9.29644632565e-13
4.42245102399e-13
5.91951601772e-13
2.99077161644e-13
5.40972829045e-13
-1.59535868452e-12
-1.14854621163e-12
-1.61699971262e-12
8.60908948318e-12
1.17618967185e-11
9.00494361601e-12
1.00686820852e-12
3.07453240314e-18
1.39389975506e-11
-2.89982720582e-12
-7.91838400018e-13
1.84012126059e-12
-3.00512705964e-18
-1.35336125512e-12
9.90695061464e-12
3.41471835839e-12
3.42634700168e-12
9.95273552068e-12
-1.8687975131e-11
-2.2520052481e-12
-1.98796829615e-12
-1.99576483724e-12
-2.2637944237e-12
-1.24913071235e-15
-1.33876769457e-18
-1.32075359396e-11
1.32189644193e-11
-1.01780102019e-14
-3.56356979422e-13
2.51241850074e-18
-1.33418638605e-11
1.34525830189e-11
2.45635308425e-13
4.70640244571e-11
3.25767816685e-12
3.29068976945e-12
-2.71397448659e-12
-1.70905081685e-12
-1.63005519163e-12
-6.92694324134e-13
-2.28340381736e-11
-6.184545806e-12
-2.28695039478e-11
-5.95040534319e-12
3.73463289467e-12
3.28518117554e-12
3.95206449655e-12
3.86642899912e-11
2.1859677032e-12
1.50550293918e-12
-6.58543917742e-13
-3.71943417163e-13
-2.75960634765e-13
-9.40234178336e-14
1.75439449366e-12
2.40223182856e-12
1.95216009689e-12
3.51763137663e-11
8.2369420477e-13
5.54866050908e-13
-9.51730622705e-14
-3.70532601548e-14
3.69326639477e-15
1.61021431951e-14
5.69544939848e-13
9.68854022534e-13
6.83400903064e-13
3.41555980929e-11
2.0700955194e-13
1.99991448506e-13
8.62740150828e-15
1.06809016938e-14
2.29920280864e-14
8.11116258114e-15
1.13317317778e-13
2.82470652483e-13
1.67454919905e-13
8.24907754138e-12
7.37505135436e-15
6.22776035573e-14
7.92768788313e-15
-8.62347759025e-15
2.16940037837e-15
-5.26602522402e-15
7.84511579049e-12
9.21315910721e-12
8.74391740127e-12
5.83380758995e-15
3.58249237468e-14
-3.30052006196e-15
1.51649372189e-14
-8.72169890845e-18
8.14919248207e-12
1.89505078233e-14
6.57837171627e-14
-1.05886598745e-12
7.35799901017e-13
5.80538450935e-12
-1.14420513416e-12
6.61886711031e-13
-9.47908188142e-13
-6.3541161842e-12
6.50713704182e-12
-1.00859378524e-12
8.34097102334e-13
-3.62077561505e-13
-6.45495494191e-12
6.378941771e-12
-4.42943222344e-13
3.68525442142e-13
-3.05931911576e-14
-6.28178356629e-12
6.17033557755e-12
-3.49302971107e-13
3.7207955677e-14
2.65252841807e-13
-6.0534083261e-12
5.71362305268e-12
-7.63001302854e-13
-2.74315621017e-13
7.30768017325e-13
-5.2405436668e-12
-1.8787525091e-12
-6.53119510322e-13
2.88509747415e-12
1.18725938119e-12
8.70720739342e-13
8.86810905327e-13
1.21175927283e-12
1.23239666718e-13
8.4354933812e-13
-5.61394610293e-13
-2.96471924601e-13
-1.08922469985e-13
-5.85648619822e-13
-1.00714094953e-12
3.06883232526e-12
1.16568021712e-12
6.16018491442e-13
-1.33642908869e-15
-4.61470300521e-12
5.20826451669e-12
1.44513362063e-12
1.48624783996e-13
1.02558488243e-13
-5.79672393038e-12
5.99066201886e-12
5.66543077305e-13
-3.9343397234e-14
7.1865871985e-14
-6.18796625089e-12
6.25965108739e-12
1.29951900301e-13
-6.6518154408e-14
2.86103224434e-14
-6.32435313545e-12
6.36277294778e-12
-1.22036134622e-14
-4.74945967865e-14
2.37628718245e-14
-9.50010709391e-14
-6.36335307603e-12
6.40502989219e-12
4.31937017659e-14
-1.36323192832e-14
-1.3238486991e-13
3.30106614761e-13
-3.15765844961e-13
9.40701932142e-14
1.27397396292e-12
-1.61369653187e-13
-9.37293792087e-13
4.97221196906e-13
2.54236507467e-12
3.71555109693e-13
-1.28838086286e-13
-1.00063025085e-13
-7.61436621564e-14
-5.38177502026e-13
-9.33042388535e-13
-5.36213113952e-13
-4.10796661219e-14
1.83708541338e-13
-2.25428955375e-12
2.06273006398e-12
1.11058751415e-13
-2.83350650881e-14
-1.93807923988e-14
-1.44125801593e-14
4.98511758843e-16
1.34287181742e-13
-1.92595680284e-12
1.78746108809e-12
-1.0638295144e-14
6.50069692109e-15
2.72031972736e-15
5.12707039887e-15
3.07581931263e-14
2.85149597286e-13
-1.61064488584e-12
1.3232731612e-12
-1.11725694447e-13
3.6738141727e-14
2.16317059923e-14
2.48196674485e-14
5.77940092833e-14
1.52015039716e-13
-2.84833518501e-13
2.09992967837e-13
-7.03899166488e-14
-6.45804303768e-14
-2.62215240572e-14
-5.61105531591e-14
4.20343377974e-14
-7.77407932422e-15
1.73415968935e-14
3.07317704117e-14
2.91158250032e-14
-4.96316982971e-13
-7.18058886656e-13
1.19752543142e-12
-7.18001378886e-14
3.03265592003e-14
1.46714777516e-14
1.45366259096e-14
2.57900500992e-14
-1.8356023489e-13
-1.52985159517e-12
1.71029833117e-12
-7.13131970643e-14
2.4803139595e-14
1.23168444559e-14
1.15168224681e-14
1.50808686784e-14
-2.78389119533e-14
-1.80534690952e-12
1.83157430253e-12
-4.28008119606e-14
1.44256353997e-14
7.70323585218e-15
7.20256689971e-15
9.71961333459e-15
2.33359277115e-14
-1.83139101647e-12
1.8033636924e-12
-2.91526374984e-14
1.0782865564e-14
6.2757361504e-15
7.06557881092e-15
-9.40828995547e-18
-9.32748409613e-15
-5.70448783325e-13
6.1480538849e-13
-3.1173431475e-14
-3.84850763238e-15
-3.26183539294e-13
-2.84158006335e-13
5.53462488051e-12
1.12549472675e-12
9.14929279425e-15
-3.26199801065e-13
-3.66508094597e-13
-3.66219268841e-13
-3.93608088165e-13
-4.79069605483e-13
-5.6801341201e-12
5.54387140265e-12
9.95837018098e-13
1.31033928743e-14
-1.6816064602e-13
-1.9183473706e-13
-5.47077068753e-12
5.37155027349e-12
4.57458121408e-13
1.75767596606e-15
-3.8868199391e-15
-1.40559274161e-13
-5.24595757733e-12
5.03346526141e-12
3.63144640371e-13
-6.20622999758e-15
1.37682904883e-13
-2.8717672019e-13
-4.68677056861e-12
4.06262598466e-12
7.84263378255e-13
-1.0624978639e-14
2.64418033149e-13
-1.47835020269e-13
-3.0997823766e-12
1.86317893642e-12
-9.97684565036e-15
-1.54865318667e-13
-1.47545603429e-13
-1.54401891696e-13
4.6559263969e-13
3.27935194037e-13
4.65843540635e-13
3.27439260814e-13
-1.58642968726e-13
4.95674221974e-14
-8.12031326368e-14
1.14732260914e-12
-1.17358344484e-12
1.3843960387e-14
7.70146353428e-14
4.90197965812e-14
7.66604070141e-14
-1.17510980676e-15
6.17939444543e-13
-2.67515041196e-12
3.79271423232e-12
-1.74052721966e-12
6.19906575729e-15
5.46646089288e-14
2.62170707594e-13
-4.58826520628e-12
5.02642343181e-12
-7.59750837523e-13
4.75729599511e-15
4.5186229259e-14
5.4979605171e-14
-5.28684715848e-12
5.39303539616e-12
-2.07638355932e-13
1.28428373644e-15
2.94209341828e-14
-3.38309021258e-14
-5.44327161649e-12
5.43891937217e-12
1.21232443822e-14
-3.36103226157e-15
2.52847408724e-15
1.98235161229e-14
-5.4500468943e-12
5.45351158702e-12
-1.12606505257e-14
-5.99723120139e-15
-5.45666327036e-15
2.5229750381e-15
-5.62563416245e-15
-3.16687998882e-13
-7.28376405122e-13
5.70147209491e-12
3.37155402836e-13
6.43690604947e-15
3.37123402606e-11
-1.48374598019e-17
-1.61612345854e-12
-9.75553033321e-13
-7.25840151181e-13
-9.731095576e-13
-7.24870209914e-13
-6.75311517827e-12
-6.72832025646e-12
-6.75096100844e-12
-6.72625851319e-12
3.7271856191e-11
-2.12950030822e-18
-7.74426876067e-13
-5.45520477574e-13
-4.33960871021e-13
-5.45872271679e-13
-4.34728280372e-13
3.94589747915e-11
2.18316643909e-18
-4.73867225673e-14
-4.77906433023e-13
-5.76985204419e-13
-4.78987118786e-13
-5.78155487168e-13
9.38456471433e-12
1.07527187811e-17
8.58003362811e-13
-1.14434444319e-12
-1.61164813521e-12
-1.14572623059e-12
-1.61320893248e-12
1.22080061262e-11
9.38526137821e-12
1.22084844312e-11
-2.92717346047e-12
4.91067595714e-13
8.85654314851e-12
2.97637292069e-12
-1.22350591557e-14
9.16630039136e-14
-8.39477270491e-13
-1.41640080234e-12
6.46868650779e-13
1.56362471605e-12
-4.62773054014e-14
4.88369543717e-11
-2.11593497134e-17
-3.18800036789e-12
3.27039232368e-12
3.97534289572e-12
3.26998342203e-12
3.97688663933e-12
-5.79328348299e-12
-2.26335540559e-11
-5.7900278779e-12
-2.26339686281e-11
4.26723850873e-11
-1.4133742768e-17
-1.47658425242e-12
2.50080490439e-12
2.0707533998e-12
2.50238758045e-12
2.07278971745e-12
4.00504684361e-11
-2.00047267986e-17
-5.22426953575e-13
1.06706238801e-12
7.80847594768e-13
1.06897377659e-12
7.82370660369e-13
3.9306682712e-11
-5.0739285735e-17
-1.81417534095e-13
3.42062661304e-13
2.19668818539e-13
3.43224201807e-13
2.20262380357e-13
9.56115887993e-12
-6.93106784345e-17
-7.12540799605e-14
5.57290093204e-14
1.44981855761e-14
5.59443910667e-14
1.40704789949e-14
1.00862179424e-11
9.56411836416e-12
1.00885210056e-11
6.74074075302e-14
4.62532589403e-14
9.44699710015e-12
5.86938699174e-15
-5.35421291629e-15
-3.14977766741e-13
4.33280664211e-18
5.64658274353e-12
-3.37161577371e-13
5.55226761518e-15
3.37123416693e-11
-9.75557928164e-13
-1.61611869787e-12
-6.728313204e-12
-6.75312568082e-12
-6.72624872794e-12
-6.75097436338e-12
-7.25836017615e-13
-9.73118195168e-13
-7.24867789879e-13
3.72718783746e-11
-5.45521629584e-13
-7.74417491146e-13
-4.33955918969e-13
-5.45879974683e-13
-4.34727130227e-13
3.94589930538e-11
-4.77906705577e-13
-4.7376530933e-14
-5.76982136023e-13
-4.78989386249e-13
-5.78152087733e-13
1.22080084602e-11
-1.14434430036e-12
8.58007877111e-13
-1.61164807053e-12
-1.14573051266e-12
-1.61321098621e-12
9.38457458226e-12
1.22084834992e-11
9.38526952717e-12
5.03892710842e-13
2.80878815507e-18
1.46929283561e-11
-2.9763866003e-12
-1.24260820559e-14
7.05758208752e-13
-1.93905677136e-18
-9.50270164841e-15
3.46388094969e-12
1.00451020075e-11
3.46275207481e-12
1.00491977146e-11
-1.91376610979e-11
-2.01377040115e-12
-2.27611752445e-12
-2.01342170083e-12
-2.27621438295e-12
1.20798435894e-14
2.74344462992e-18
-1.33888415546e-11
1.33835024357e-11
-6.74346811692e-15
-6.15923540601e-14
5.51134025257e-19
-1.34504882599e-11
1.34833921747e-11
2.86878878518e-14
4.88369870699e-11
3.27036694834e-12
-3.18800937723e-12
-2.26335265031e-11
-5.79330990245e-12
-2.26339539086e-11
-5.79003662186e-12
3.97534220812e-12
3.26995701293e-12
3.97686686396e-12
4.26724029779e-11
2.5007839011e-12
-1.47661697853e-12
2.07074791591e-12
2.50235258391e-12
2.0727708851e-12
4.00504509399e-11
1.06705626548e-12
-5.22458631314e-13
7.80821816121e-13
1.0689557261e-12
7.82342310408e-13
3.93066770446e-11
3.42053311005e-13
-1.81422642035e-13
2.19628953978e-13
3.43211925483e-13
2.2023163135e-13
1.00862371407e-11
5.57209256633e-14
-7.12205577683e-14
9.56116456526e-12
1.00885210032e-11
9.56413496535e-12
1.44675738167e-14
5.59326451427e-14
1.40584758481e-14
5.69655057836e-14
-9.30829983611e-18
1.00400896594e-11
-5.85670802438e-15
-4.92965217742e-15
-3.11684585919e-13
7.28386539861e-13
5.70089855487e-12
-1.12550380267e-12
7.90329364215e-15
-4.72031466252e-13
-6.44419025302e-12
6.91818702011e-12
-9.95832528976e-13
1.83186407523e-14
-2.30839340748e-13
-7.1718367532e-12
7.30775717969e-12
-4.57456142803e-13
6.86468344195e-15
-2.59882112549e-14
-7.33242380081e-12
7.24821710771e-12
-3.63149558545e-13
-4.5590357414e-15
1.66556919302e-13
-7.08021855782e-12
6.56546423095e-12
-7.84264884201e-13
-1.18888632631e-14
3.8514015098e-13
-5.85082760889e-12
-1.86317764341e-12
-1.26913322829e-14
2.92718039998e-12
9.3411440499e-13
1.27274023973e-12
9.3363432453e-13
1.27388715646e-12
4.81808056121e-14
8.39477816763e-13
-5.72114775847e-13
-2.91163929485e-13
-2.43799171229e-14
-3.51014385835e-13
-9.40869547842e-13
3.3769196209e-12
1.17357300812e-12
1.18316371396e-14
-1.21777088761e-13
-5.36897656176e-12
6.24451682841e-12
1.74050912692e-12
6.51972299986e-15
1.32434630053e-14
-7.05316751883e-12
7.3413454176e-12
7.59723635259e-13
5.88815898874e-15
4.06012485916e-14
-7.6122300615e-12
7.70360587202e-12
2.07616815709e-13
2.44014516779e-15
3.34525891156e-14
-7.78609659806e-12
7.82323780714e-12
-1.21360408362e-14
-2.76571608894e-15
2.71463914669e-14
-4.62617982959e-14
-7.81113022878e-12
7.82522096395e-12
1.12620487069e-14
-6.23737768545e-15
-2.81811190803e-14
3.26186480625e-13
-3.12865905417e-13
1.39971555612e-14
1.25086349102e-12
-9.0848803559e-13
-1.96883072659e-13
4.79068545864e-13
2.56375073166e-12
1.40481022627e-15
-5.17640972393e-13
-9.05199117542e-13
-5.16012925052e-13
-6.7537335311e-14
1.91831759633e-13
-2.39847666788e-12
2.27781406325e-12
-3.63181953875e-15
7.38351722024e-15
1.4056005215e-13
-2.17313230416e-12
2.03030448382e-12
-5.11574888826e-15
7.09834570224e-14
2.87179271425e-13
-1.82271001742e-12
1.47075324195e-12
-6.20595292725e-15
3.82945981344e-14
1.4783728251e-13
-3.10813808928e-13
2.2270600894e-13
-7.7567617422e-14
-2.04585146645e-14
-1.94336486508e-14
-4.95650049711e-14
6.16089055516e-14
-2.16026979363e-14
1.78486676245e-14
1.11460582528e-14
3.0341221252e-14
-6.17938195786e-13
-8.38719720823e-13
1.42304427802e-12
3.27241749321e-15
3.93655979524e-14
-2.62169899879e-13
-1.83344482225e-12
2.05395062349e-12
2.29850020132e-15
2.62923905272e-14
-5.49752774544e-14
-2.17139687278e-12
2.20002455217e-12
5.52072180238e-17
1.87819953854e-14
3.38380125799e-14
-2.19381657949e-12
2.14362645424e-12
-2.42988272197e-15
5.07974654197e-15
-2.52705862017e-15
-6.87325096194e-13
7.37698772649e-13
-5.02059814164e-14
-2.72281450397e-15
-3.24938595721e-13
2.62788992582e-13
5.58484809805e-12
1.12162487765e-12
-5.89955061989e-13
-3.24378253733e-13
-3.65143941917e-13
-3.64845886965e-13
3.67645285128e-13
-4.93100044752e-13
-5.71450484917e-12
5.52240993633e-12
1.00071526237e-12
-6.83165590066e-13
1.66193763596e-13
-1.97907203549e-13
-5.38163140302e-12
5.23169884699e-12
4.56612893344e-13
-2.74966897126e-13
1.64688430947e-14
-1.45098273074e-13
-5.07523991428e-12
4.8562924135e-12
3.66848433481e-13
-1.92715023906e-14
-1.17322777369e-13
-2.95938820053e-13
-4.52354473442e-12
3.93964157095e-12
7.97297862618e-13
1.99866898606e-13
-2.45137022241e-13
-1.52432675104e-13
-3.03299517569e-12
1.89623414234e-12
4.26523237021e-13
-1.5906103566e-13
-1.53193648669e-13
-1.60310068687e-13
4.63230272373e-13
3.26446154203e-13
4.63194320499e-13
3.27502092434e-13
1.31051557081e-13
5.20443344868e-14
-9.90222012286e-14
1.12386103566e-12
-1.19744106904e-12
-2.21650495225e-13
7.86798681155e-14
5.32188507807e-14
7.92574636374e-14
-9.71355863814e-15
5.99053044843e-13
-2.57113520956e-12
3.6153364302e-12
-1.69070510768e-12
5.71644019468e-14
-6.41679138563e-14
2.46252666735e-13
-4.35471572398e-12
4.76351952673e-12
-7.09701166874e-13
1.1881261171e-13
-4.79178982439e-14
4.77286102242e-14
-5.00660781064e-12
5.10922178869e-12
-1.80199046072e-13
7.77743559424e-14
-2.26926886459e-14
-3.33576801353e-14
-5.15978930766e-12
5.16374090564e-12
1.81260029115e-14
3.39727677818e-14
2.36632860467e-15
-8.01321667861e-15
-5.18217939381e-12
5.19364468267e-12
-4.72410954326e-15
7.39930270111e-15
-5.73446890599e-15
2.74178006555e-15
-5.50138728769e-15
3.03733270814e-13
-7.23631796912e-13
5.7341550589e-12
3.35183037979e-13
-6.49439571006e-13
3.17053412518e-11
-2.20863312684e-17
-9.6037299073e-13
-9.74375295352e-13
-7.19439739764e-13
-9.53500775281e-13
-7.27677133469e-13
-6.69684672986e-12
-6.66636839125e-12
-6.65270171273e-12
-6.62260812444e-12
-7.01773296012e-13
-9.62564005965e-13
-6.83204328063e-13
3.41025754219e-11
-5.30317928156e-18
-3.91395791759e-13
-5.34428830429e-13
-4.27761549493e-13
-5.17050510953e-13
-4.26021903866e-13
-2.49528998051e-13
-3.88846553405e-13
-2.36591673836e-13
3.61252627506e-11
5.58789266591e-18
-5.84534872639e-14
-4.79069376466e-13
-5.85797269122e-13
-4.61335107505e-13
-5.78820078278e-13
4.69205834121e-14
-3.518420054e-14
8.16906632099e-14
9.00959487566e-12
1.85672218717e-17
2.88205860118e-13
-1.15311529257e-12
-1.62198945949e-12
-1.1196258947e-12
-1.60379833733e-12
5.29162980822e-13
4.32690998273e-13
5.81318703311e-13
1.17659943922e-11
8.61557601126e-12
1.12592568224e-11
-2.96161816949e-12
-4.67421733581e-13
8.69413347779e-12
2.97850517452e-12
7.66001733495e-13
-8.92695700973e-14
-8.4306382098e-13
-1.40952189534e-12
6.45249868665e-13
1.56560593822e-12
1.31000914104e-13
4.70612256103e-11
-3.00246095615e-17
-1.6916707972e-12
3.28518743371e-12
3.95458036497e-12
3.25014261299e-12
3.74111292482e-12
-5.92788541385e-12
-2.28665563158e-11
-6.1125103804e-12
-2.27830203716e-11
-7.53309601628e-13
-2.65070312251e-12
-1.69447161246e-12
3.8706113769e-11
-5.03819988031e-17
-2.95358429664e-13
2.40376279429e-12
1.95645620999e-12
2.19202392581e-12
1.76207110345e-12
-1.05518342011e-13
-6.63252481384e-13
-3.71624215152e-13
3.52220583892e-11
-5.27712164176e-17
4.49990438297e-15
9.72950615086e-13
6.86817179167e-13
8.31315270071e-13
5.75539977323e-13
1.75577422944e-14
-9.27998400515e-14
-3.42776891556e-14
3.42049541686e-11
-5.80265562308e-17
2.46673797757e-14
2.84657281978e-13
1.68462102121e-13
2.11143584054e-13
1.15108705599e-13
9.14123227959e-15
1.05237734185e-14
1.1941456121e-14
8.75661489789e-12
-4.03120798899e-17
2.67418436753e-16
3.55545913827e-14
-4.27021482272e-15
7.38731068268e-15
3.86401324621e-15
9.22366883991e-12
7.86198029341e-12
8.26220487527e-12
-8.35740792359e-15
6.19164560934e-15
-1.12804042147e-14
-5.66536793562e-14
1.66111783637e-14
8.81921619213e-12
1.04431016609e-14
-3.29960395106e-14
3.04157345158e-13
5.78533705396e-18
5.67738808222e-12
-3.35187593177e-13
-6.46363619721e-13
3.17053447211e-11
-9.74381757363e-13
-9.62557696497e-13
-6.66635815869e-12
-6.69686073645e-12
-6.62260050981e-12
-6.65271984975e-12
-7.19436038082e-13
-9.53513449503e-13
-7.27680199119e-13
-6.83195345511e-13
-9.60389850502e-13
-7.01784242032e-13
3.41025954394e-11
-5.34434110598e-13
-3.88841317779e-13
-4.27758917049e-13
-5.17058689236e-13
-4.26020510883e-13
-2.36585427057e-13
-3.91408655828e-13
-2.4953456362e-13
3.61252852487e-11
-4.79068372568e-13
-3.51782603969e-14
-5.85793350473e-13
-4.61335402304e-13
-5.78816897782e-13
8.1695407658e-14
-5.84560523894e-14
4.69224149169e-14
1.17659969253e-11
-1.15311146575e-12
4.32696444552e-13
-1.62198337276e-12
-1.11962322546e-12
-1.60379291404e-12
5.81323557862e-13
2.88207244513e-13
5.29168610223e-13
9.00960631213e-12
1.12592597528e-11
8.61558617015e-12
-4.79954227052e-13
3.05319147373e-18
1.44520749216e-11
-2.97851612895e-12
7.72386821237e-13
-6.87783551889e-13