/*--------------------------------*- C++ -*----------------------------------*\
  =========                 |
  \\      /  F ield         | OpenFOAM: The Open Source CFD Toolbox
   \\    /   O peration     | Website:  https://openfoam.org
    \\  /    A nd           | Version:  7
     \\/     M anipulation  |
\*---------------------------------------------------------------------------*/
FoamFile
{
    version     2.0;
    format      ascii;
    class       volVectorField;
    location    "7";
    object      U;
}
// * * * * * * * * * * * * * * * * * * * * * * * * * * * * * * * * * * * * * //

dimensions      [0 1 -1 0 0 0 0];

internalField   nonuniform List<vector> 
5218
(
(0.0394582546418 0.00623195728304 0.00618850247298)
(0.027347896479 0.00439811224542 0.00214085407722)
(0.0184845850384 0.00112594488153 0.000425302863062)
(0.0156361146638 0.000935312115148 -8.01163101915e-05)
(0.0138153058493 0.00246636487235 -0.000508657505597)
(0.00903327974919 0.00653043957273 -0.000922753696483)
(-0.000343697233948 -0.00180748646391 0.000221686577376)
(0.00799584582019 -0.0021995519427 -0.000445069722653)
(0.0130785641279 -0.000533864507815 -0.000350997681152)
(0.0147916561665 0.000115159239629 -0.000146717274479)
(0.0151328916032 0.0001542110321 2.96741204188e-06)
(0.0151206528405 -0.000238993918394 0.000381256845555)
(0.0388430888907 0.00126024434634 0.00607980849636)
(0.0295947740265 0.00323924206065 0.00233875066012)
(0.0246599512269 0.00165378178906 0.000610811099021)
(0.0239521750757 0.00182883046794 9.60626670669e-07)
(0.0268890205138 0.00537703572622 -0.000712493513158)
(0.036391540534 0.0200080779411 -0.00281090854413)
(0.0150732465219 0.0217935439199 -0.000674940425516)
(0.0199252315196 -0.0220588368737 0.00323942779522)
(0.0217205818869 -0.00713311713629 -6.3336000094e-05)
(0.0219029230938 -0.00149418074831 -0.000277457736319)
(0.0221227353347 3.3103675121e-06 -0.00013503458529)
(0.0222646222444 0.000177292041469 8.51373537749e-05)
(0.0219678160786 -5.92045979218e-05 0.000503069681152)
(0.0387667204142 -0.000149878408326 0.00608290836893)
(0.0292966973955 -0.00112070364583 0.00227280056959)
(0.0254167371253 -0.000613367698694 0.000569968027918)
(0.0257731558887 -0.000734515570367 -4.73541752502e-05)
(0.032124188522 -0.00244252638148 -0.000879943818155)
(0.0573393287412 -0.0107042401299 -0.00218372786372)
(0.164097740682 -0.0701748156865 -0.00548629799372)
(0.307137972463 -0.00741497914592 0.000849246051896)
(0.270498916575 0.0128150641677 0.0096403634448)
(0.0649486851806 0.0250693153457 0.00331017961198)
(0.0317310644731 0.00435380435824 0.000257935621075)
(0.024412314228 0.000736336609351 -7.87149030074e-05)
(0.0233512004548 8.78219887159e-06 -6.72128628082e-05)
(0.0233629274308 -7.46710424239e-05 0.00012734834372)
(0.022997378791 -8.8712059235e-06 0.000581230979277)
(0.0389160000152 -0.00186505795654 0.00605766498837)
(0.0296176490051 -0.00464887411702 0.00234170167214)
(0.0227499253529 -0.00197665836955 0.000534667961462)
(0.0206355096476 -0.00191009860509 -8.02198342074e-05)
(0.0204821342072 -0.00492306801058 -0.000657431938259)
(0.0202240645684 -0.0142095650125 -0.00150961540004)
(0.00420326787258 -0.00826026960826 -0.000146520687021)
(0.00320053174012 0.0073300973647 0.000939169964798)
(0.0135566902768 0.00506689679824 -0.000459552177569)
(0.0179740124606 0.00135527677565 -0.000450018078493)
(0.0193788365368 4.72445165726e-06 -0.000205660984976)
(0.0196989973602 -0.000172955263995 2.69148014607e-05)
(0.0195108033221 0.000168736899864 0.000527869561436)
(0.0390228268143 -0.00891729076795 0.00627503920654)
(0.0129654530282 -0.00187862142722 0.000461605241982)
(0.00686977043364 -0.000294100667915 5.46635027852e-05)
(0.00559755691382 -0.000222283302315 -4.56858553717e-05)
(0.00487006953764 -0.000492865731947 -0.000172198999064)
(0.00269122260558 -0.00136635050742 -0.000413862060064)
(-0.000855555192862 0.000124117462775 8.576699082e-05)
(0.00198516771115 0.000314110390308 -4.76538629373e-05)
(0.00439407613226 -4.17363554692e-05 -9.17817765483e-05)
(0.00525236836141 -0.0001508772677 -5.48631078068e-05)
(0.00545613987987 -0.000122452389267 -1.33818467531e-05)
(0.00561225897172 4.68070304832e-05 0.000107658870871)
(0.0530317953097 0.0148394198406 0.00809632242595)
(0.054808480748 0.00904875674572 0.00834572194947)
(0.048491338125 0.00339183122999 0.00300630052974)
(0.0445896748354 0.00248326812133 8.47665534783e-06)
(0.0390392753843 0.00530414474279 -0.00247894970009)
(0.0233089291469 0.0117134327285 -0.00491381276663)
(0.00327530916583 -0.00480986298262 0.00291626961711)
(0.0272243600301 -0.00944529762079 -0.000950382181188)
(0.0403896939564 -0.00437946530196 -0.00154842433963)
(0.0449003093557 -0.00119943269081 -0.00100585737534)
(0.0460002144231 0.000150578497907 -0.0005196905093)
(0.0469062585197 -0.000233678142603 -0.00016410255303)
(0.0525121977254 0.00523121693928 0.00861499976717)
(0.0748743468226 0.00582987484189 0.00873583520565)
(0.0824704567654 0.00389910234678 0.0041796543883)
(0.0874695058201 0.00427964692453 0.000384938128344)
(0.095865614083 0.0124087156077 -0.00471997659189)
(0.084444721936 0.0346313140987 -0.00963877856256)
(0.0400940584152 0.0472477886058 -0.00907806741507)
(0.115665538784 -0.0607306139342 0.0165185487095)
(0.0967017494107 -0.0262542737844 0.00674394147336)
(0.0917796351011 -0.00941573295078 0.00182213621729)
(0.089985930285 -0.00290480293119 7.98988193061e-05)
(0.0902163262613 -0.000935102693117 -0.000424857852523)
(0.078823143541 -0.000751466768761 -0.000254818851945)
(0.0522057904224 -0.00161901685054 0.00854736820592)
(0.0748743251592 -0.00582984502362 0.00873585516061)
(0.0824703928161 -0.00389908939825 0.0041796582976)
(0.0874694772518 -0.00427971954918 0.000384926472427)
(0.0958656149355 -0.0124087939468 -0.00472000512387)
(0.123234868658 -0.0173936386467 -0.00975344084309)
(0.235504340956 -0.105718963554 -0.0164239928484)
(0.533874235216 -0.0254654579369 -0.000156431124811)
(0.497486866949 0.019224258069 0.0119685795963)
(0.115665593288 0.0607305286571 0.0165185734451)
(0.0967017770809 0.0262542888991 0.00674395935509)
(0.0917796100452 0.00941581320985 0.00182218322943)
(0.0899859029155 0.00290481313355 7.99495622724e-05)
(0.0902163694619 0.000935074848223 -0.000424849560504)
(0.084005966451 0.000558398723183 0.000144741964265)
(0.0528354606128 -0.00929549814052 0.00858127043383)
(0.0646533899181 -0.0111858302713 0.00962193120966)
(0.0640825393756 -0.00589204021462 0.00402472659646)
(0.0624939568172 -0.00478891581033 0.000334453884324)
(0.0600089212622 -0.00978250026833 -0.00309594306141)
(0.0499325088508 -0.0246856513791 -0.00747393787164)
(0.0129264873005 -0.0195057637516 -0.00464988913936)
(0.0203623256312 0.0167060485622 0.00705453040211)
(0.0483658245122 0.0181755842406 0.00105621114681)
(0.0595653791333 0.00742868947631 -0.00100264203693)
(0.0634412362015 0.00220337629954 -0.0010795099014)
(0.0648539368293 0.000429438040966 -0.000640143608735)
(0.0654825407893 0.00114931494863 -0.000202191077817)
(0.0499599705636 -0.0133895469764 0.00438397593743)
(0.0275346887798 -0.00130164939495 0.00473151877728)
(0.0211991392024 -0.000429456875238 0.00118875239331)
(0.0186735766995 -0.000270299747254 -0.000166999828604)
(0.0152980257224 -0.000654760344083 -0.00130318018654)
(0.0109870907168 -0.0041875250011 -0.00255463737419)
(-0.00152042494891 0.000453377666577 0.00124137005125)
(0.00995052980245 0.00122547162605 -0.00102660560749)
(0.0168242514099 0.000637420025704 -0.000867591015882)
(0.0189190149493 0.000107192021629 -0.000494408620781)
(0.018983309737 -0.000236181344829 -0.000374455514667)
(0.0252367532683 -0.000839723546883 -0.00017260979731)
(0.0521856637612 0.0145961215822 0.001397002739)
(0.0556789197846 0.00882940800007 0.00208414983807)
(0.0540161184227 0.00348187478845 0.00091776520974)
(0.051686231189 0.00256031671414 -9.12687575266e-06)
(0.0449548519473 0.00534178706735 -0.000804823118688)
(0.0251893822907 0.0113089334338 -0.00143779046684)
(0.0029408269256 -0.00444495674589 0.00092131812897)
(0.0327034072278 -0.0114132855485 5.82523547004e-05)
(0.0491484111726 -0.00597581688381 -0.000297087622109)
(0.0545954669569 -0.0019925528875 -0.000271075749715)
(0.0556454245183 0.000111534487363 -0.000196161936892)
(0.0560650672177 3.38631455798e-05 -0.000154301660066)
(0.0516359871576 0.00518078222077 0.00156703603948)
(0.0775428839356 0.00583141019142 0.000168874051173)
(0.089389787329 0.00406394149314 8.03209413788e-05)
(0.0962936596889 0.00433556103796 -1.72328593875e-05)
(0.103735003898 0.0125148770731 -9.39796202817e-05)
(0.0916224358396 0.0353728976103 -0.00243843821299)
(0.0407444471867 0.0473040824457 -0.00268385477147)
(0.115561403604 -0.0622841898552 0.000103700397559)
(0.104169805532 -0.028910427917 4.54126761163e-05)
(0.103029470157 -0.0112665513901 3.05875914504e-05)
(0.102712559139 -0.0038865071611 5.51172747718e-06)
(0.10389872098 -0.00133484340072 -3.02396088896e-05)
(0.0973145118683 -0.000473400666075 -0.000107338393869)
(0.0512904976024 -0.00159918409662 0.00155688762001)
(0.0775428581675 -0.00583135523102 0.000168859827102)
(0.0893897355781 -0.00406390477323 8.03246900738e-05)
(0.0962936434938 -0.00433561170844 -1.72108861301e-05)
(0.103735008937 -0.0125150056556 -9.39715375726e-05)
(0.132788068408 -0.0177970274565 -0.00247486558959)
(0.23900240423 -0.106714974772 -0.00360223085133)
(0.541013738279 -0.0262503836659 -0.000331322408887)
(0.500935002776 0.0190994547896 0.00177345112833)
(0.115561479122 0.0622841158419 0.000103669854372)
(0.104169963085 0.0289104106403 4.53678680443e-05)
(0.103029498149 0.0112665730418 3.0539321563e-05)
(0.102712587325 0.00388648373338 5.47780318896e-06)
(0.103898732938 0.00133476661763 -3.0262994286e-05)
(0.104058701296 0.00056800768976 -3.05317818439e-05)
(0.0520138725597 -0.00917683133355 0.00154119862868)
(0.067104883679 -0.011095617446 0.0025172740239)
(0.0725812533643 -0.00619624543996 0.00125416896887)
(0.0733528535237 -0.00510806798843 0.000111434864071)
(0.0697201802953 -0.0102181075513 -0.000946842330618)
(0.054517294081 -0.0246760486147 -0.00207475650762)
(0.0129753852806 -0.0191951111924 -0.0014236712847)
(0.0215046030963 0.0172604815044 0.00178993783566)
(0.0573809082078 0.0215621320258 0.000669709816466)
(0.0726473527782 0.00968417509276 -6.58070044252e-05)
(0.0779162063973 0.00335505652683 -0.000240493793354)
(0.0796225784027 0.000777184125535 -0.000207197867384)
(0.0799333622056 0.000804999435525 -0.000176677186184)
(0.0496121653064 -0.0131480297158 0.000809553988226)
(0.0269362922951 -0.00112976968912 0.00100292263837)
(0.0230979239304 -0.000440652196869 0.000352055519904)
(0.0211886540349 -0.000249707708555 -6.43260021013e-05)
(0.0172006143481 -0.000584524382639 -0.000415409033654)
(0.0119379218852 -0.00433343978179 -0.00116050065583)
(-0.00238268236764 0.000163303529249 0.000603028184425)
(0.0117758109999 0.00157046739694 -0.000151818815601)
(0.0201783040294 0.00100817357385 -0.000217644202577)
(0.0226683544913 0.00026809818517 -0.000154412785634)
(0.0225648830323 -0.000308344174143 -0.000120314550381)
(0.030415222203 -0.00151343264916 -0.000153798071739)
(0.0524677569396 0.0145484145765 -0.00411217362589)
(0.0558127556562 0.00898136968545 -0.00546636502097)
(0.0528182561937 0.00354954844626 -0.00236426161334)
(0.0498924359335 0.00262373093682 -0.000158920390316)
(0.0434520926917 0.00547501390615 0.00176216713092)
(0.0248286647871 0.0116325751064 0.0035248547411)
(0.00314177765283 -0.00470795217582 -0.00208449156451)
(0.0312750921757 -0.0110780039226 0.000270714380773)
(0.0466191771996 -0.00558949727267 0.00106261517242)
(0.0517335044271 -0.00175668716188 0.000773206996516)
(0.0528219501883 0.000151753921307 0.000358719101248)
(0.0534347763107 5.92860950938e-05 8.14750109246e-05)
(0.0518988777055 0.00515441387555 -0.00464247752746)
(0.0747292491847 0.005752822223 -0.0084427535092)
(0.0824419181846 0.00389441549031 -0.0040652684747)
(0.0875182356438 0.00429774542958 -0.000432035459457)
(0.0959200791213 0.0124412621139 0.00455283166188)
(0.0891886291136 0.0355237375278 0.00675657163669)
(0.0405672601596 0.0474375906928 0.00442859943435)
(0.11558372407 -0.0609032476481 -0.0165571301851)
(0.09670485015 -0.0262632245996 -0.0068466139776)
(0.0918848842256 -0.00942552489293 -0.00183407579261)
(0.0901159492744 -0.00290944859332 -9.32213930985e-05)
(0.0903572154604 -0.000929486397664 0.000365847557294)
(0.090958191993 -0.000321369981073 0.000510337533373)
(0.0515559975896 -0.00159310388834 -0.00462077911063)
(0.0747292452181 -0.00575281593659 -0.00844276026792)
(0.0824418648658 -0.00389439632936 -0.00406525632367)
(0.0875182322058 -0.0042977698285 -0.000432005092677)
(0.0959201033375 -0.0124413216647 0.00455285675596)
(0.129670667456 -0.0178422657928 0.00689415478982)
(0.238175021229 -0.10656387935 0.0102292813574)
(0.540189570318 -0.0261802269388 0.000466149718858)
(0.50092445342 0.0191155385647 -0.00331803374612)
(0.115583706518 0.0609031188946 -0.0165571987161)
(0.0967048513503 0.0262630241952 -0.0068467281251)
(0.0918849171386 0.00942541882568 -0.00183418804086)
(0.0901160132926 0.00290939646253 -9.32525164021e-05)
(0.0903572364139 0.000929390526336 0.000365805636553)
(0.0970927025794 0.000450532966422 0.000291936864304)
(0.0522997410922 -0.00913737759302 -0.00456515196483)
(0.0668350177927 -0.011012989922 -0.00651109206902)
(0.0704582496178 -0.00606541009206 -0.00318396390497)
(0.0703516762689 -0.00510600933553 -0.000460057271107)
(0.0670096159102 -0.0104346064908 0.00220053663784)
(0.0533832187098 -0.025106106652 0.00525255519081)
(0.012974714826 -0.0193184270888 0.00227706835684)
(0.0218113624652 0.0176783871735 -0.00535160971956)
(0.0551267827584 0.0211486668003 -0.00176251432868)
(0.0687340096782 0.00918529861735 0.000410839515744)
(0.0733498717682 0.00301567277215 0.000796529858617)
(0.0748857228504 0.000632061232167 0.000528371237384)
(0.0754504321596 0.000564372468374 0.000144823886354)
(0.0496606043084 -0.013073478862 -0.0013357717173)
(0.0273552573457 -0.00122228872185 -0.00296408061904)
(0.0228741487687 -0.000474297186744 -0.00107004926917)
(0.020680065251 -0.000272935576502 3.67832431716e-06)
(0.0168250238356 -0.000631730184902 0.000863826301137)
(0.0118640850432 -0.0044783657524 0.00169455407201)
(-0.00225633801094 0.000269589681027 -0.000751027293782)
(0.011299033657 0.00154453172909 0.000665068904695)
(0.0192662457889 0.000943716394301 0.000723514952343)
(0.0216729572957 0.00023142470094 0.00041620911774)
(0.0216511940863 -0.000297719477196 0.00020865069522)
(0.0298073238209 -0.00149054713123 0.000112327794422)
(0.0540730591621 0.0143001896596 -0.0137289209778)
(0.0482460742403 0.00818702458882 -0.00813990386368)
(0.038992834414 0.00296950130404 -0.00240091542267)
(0.0346549464712 0.00220256582531 -2.50650231762e-05)
(0.0304904605335 0.00484988416414 0.00187381814655)
(0.0191280735985 0.0111657590822 0.00408213736515)
(0.00175987087736 -0.00422664754361 -0.00192717156969)
(0.0196791683624 -0.00667171541871 0.00135383903617)
(0.0299703384089 -0.00275545113961 0.00145812521991)
(0.0336747136835 -0.000560066265271 0.000780902527819)
(0.0346962692042 0.000227364859022 0.000250959773591)
(0.0355198420974 0.000151927285889 -0.000118161962464)
(0.0527898285757 0.00456850151643 -0.013741943469)
(0.056572150041 0.00613481632272 -0.0099090724325)
(0.0550103784472 0.00363180756194 -0.00395824114751)
(0.0552132467032 0.00361980279666 -0.00100229336461)
(0.0594670781732 0.00938496316348 0.00173309520297)
(0.0696338195775 0.0319101129401 0.00953249258989)
(0.0379929588832 0.0465002525711 0.00975693960167)
(0.054420203673 -0.0438009614646 -0.0141215630249)
(0.0557069701427 -0.0189481062857 -0.0025685883685)
(0.0536090607063 -0.00566597834403 -0.000111387192106)
(0.0539145071788 -0.0012673432014 0.000409878072345)
(0.054820901251 -0.000180414538626 0.000207151631962)
(0.055428946824 -0.000206083317107 0.000304057057286)
(0.0524918229297 -0.00140903083204 -0.0137308131418)
(0.0566058393659 -0.00224688543364 -0.00972267588995)
(0.0570151619761 -0.00147716452905 -0.00380361315678)
(0.0591474249776 -0.00153943771094 -0.000681437020785)
(0.0685467740403 -0.00431951816698 0.00322662379667)
(0.102503921385 -0.0163705849681 0.0096810311314)
(0.222939683981 -0.100616648139 0.0203830787777)
(0.527979679207 -0.0246925562113 -0.000633268864831)
(0.491203318112 0.0191668258767 -0.0170786644064)
(0.14410720221 0.0486537570623 -0.0227838659943)
(0.0773371878611 0.0117432280699 -0.00833609240848)
(0.0597878567835 0.0030750709236 -0.00199413705343)
(0.0573256223436 0.000776342709026 -9.60276945108e-05)
(0.0579518275457 0.0002243858418 7.58685636105e-05)
(0.0586202760839 7.45421836754e-05 9.9216960866e-07)
(0.053338835524 -0.00841516651838 -0.0137301829584)
(0.0551378805118 -0.00863042329102 -0.00904165018326)
(0.0499120572303 -0.00435275400724 -0.00302828559337)
(0.0472239027257 -0.00386987651914 -0.000201144534935)
(0.0458725636882 -0.00886234530576 0.00231590913668)
(0.0409320198204 -0.0234555485534 0.00662625466157)
(0.012480957529 -0.019489126369 0.00483232515313)
(0.0141779464054 0.0156146347686 -0.00546347617266)
(0.0350075671303 0.0135924366267 0.000491170905819)
(0.043036069583 0.00490556487243 0.00138406217508)
(0.0459363931226 0.00108198194668 0.000894031475349)
(0.0470207864564 -2.51919558257e-05 0.000253017682545)
(0.0478686295019 0.000258083197492 -8.43142623478e-05)
(0.050245066805 -0.0128704070494 -0.00618743599789)
(0.02709674837 -0.00205302361389 -0.0049617471481)
(0.0183860594874 -0.000496321941018 -0.00107592193986)
(0.0154075852117 -0.000286665848516 2.57132113922e-05)
(0.0126195984024 -0.000668057231121 0.000845886864713)
(0.00993747439753 -0.00442362912414 0.00215004027299)
(-0.00173400186195 0.00056926827738 -0.000848707797904)
(0.00744005084573 0.000883287699407 0.0011540830544)
(0.0131115578585 0.000404514198052 0.000827817504108)
(0.0149992602712 2.87521928735e-05 0.000396653250179)
(0.0152646745037 -0.000161777009428 0.000213733408385)
(0.0152461142197 -0.000443326960654 0.000264517675526)
(0.0502450750061 0.0128704399176 -0.0061874398211)
(0.0384675558745 0.00468107495864 -0.00819728265928)
(0.0390071164201 0.00875390582512 -0.00629421193381)
(0.0172331460586 0.00294247601072 -0.000827553073228)
(0.0270967867025 0.00205303071903 -0.00496174944377)
(0.0215057276593 0.000988914974336 -0.00233651085166)
(0.0129355360127 0.00177899733781 -0.000405581729597)
(0.00774249415819 0.000229398010605 -7.16660003602e-05)
(0.0183860892086 0.000496323180889 -0.00107592985492)
(0.0166047625288 0.000305264787659 -0.000392237512381)
(0.00697327586762 0.000341012634968 -2.53106867846e-05)
(0.00586193190781 7.66754212738e-05 5.27664548118e-05)
(0.0154076000909 0.000286653783613 2.5693518036e-05)
(0.0142386344579 0.00038842032298 0.000412916029647)
(0.00565296817923 0.000279165163532 4.98074681395e-05)
(0.00511195608942 0.000287854633049 0.000158580372969)
(0.0126196139621 0.00066801492751 0.000845926865994)
(0.0100157495884 0.00112838884208 0.00139638322492)
(0.00488459418326 0.000591699526333 0.000169299614406)
(0.00362208709231 0.00103701327096 0.000370890059898)
(0.00993754533911 0.00442354204787 0.00215007463554)
(0.0027174066358 0.0014836448129 0.000389608382539)
(-0.00175872090709 0.00146788113482 -0.00125170154615)
(-0.000914355145968 0.000476738579949 -0.000129681674669)
(-0.00173431292446 -0.000569601682796 -0.000848393288963)
(0.00278725385939 -0.000895109572048 0.000977393911862)
(-0.00112429520216 -0.000138634495154 -8.38884338417e-05)
(0.00098870943455 -0.000513680210975 4.23030660551e-05)
(0.00743985786833 -0.000883378388506 0.00115425587916)
(0.0108718557473 -0.000687883172912 0.00107653013443)
(0.00195605409478 -0.000342798123284 4.29981418612e-05)
(0.00389383612662 -0.000284066947014 9.85151389405e-05)
(0.0131114861257 -0.000404556863752 0.000827974625451)
(0.0143682358407 -0.000189764850624 0.000604540141917)
(0.00438860866867 1.66540719242e-06 4.79659738274e-05)
(0.00512126197174 -5.94537813288e-05 7.54916760191e-05)
(0.0149992371254 -2.87280057101e-05 0.000396661282602)
(0.0152365276536 7.53049981151e-05 0.0002700563055)
(0.00527633289127 0.000135573828111 2.00358105074e-05)
(0.00545060624418 1.05128460083e-05 4.50215886996e-05)
(0.0152646881718 0.000161871675349 0.000213681616537)
(0.015228931202 0.000272224654829 0.000289361828474)
(0.00547829241341 0.000137131137753 -4.29934504385e-06)
(0.00557104237535 -1.64411419446e-05 1.08235238845e-06)
(0.0152460378633 0.000443389377219 0.000264367746868)
(0.0228388492563 8.60244477557e-05 -2.35063284073e-05)
(0.00566051337878 1.86328056619e-05 -8.81833240842e-05)
(0.00584326294351 -9.98481376834e-05 -0.000102089185336)
(0.0020045216076 0.00262680008782 0.00137400572231)
(0.0409320455803 0.0234554206799 0.00662629268546)
(0.0299273869368 0.0310093135468 0.0079181917095)
(0.00909534810439 0.00659735958452 0.000902564569472)
(0.00084173173462 0.00102113740732 3.54139528736e-05)
(0.0202823266727 0.0142817923669 0.00150054724973)
(0.0102677875435 0.0123037689054 0.00213884711496)
(0.0124809311983 0.0194891030082 0.00483233627205)
(0.00420687187242 0.00827003527062 0.000146251047446)
(-0.00175198289018 0.00265853400334 -0.00246018349003)
(-0.00179714643007 0.000715305744608 -0.0068855579867)
(-0.00109825022253 0.000791546791369 -0.000262078645574)
(-0.00172817370901 -0.00202881293326 -0.000160290290826)
(0.222939633308 0.10061664624 0.0203830855196)
(0.518502517021 0.0698504408858 0.00560698226072)
(0.0150807602918 0.0218085001997 0.0006730071037)
(0.164104291485 0.0701803322023 0.00548035938983)
(0.304066350041 0.029261153942 -0.000479075707019)
(0.527979741101 0.0246926057973 -0.000633294606137)
(0.533652087819 1.00307371924e-05 -0.0120187944353)
(0.307118231939 0.00741311175463 -0.000847179939061)
(0.292971926582 -0.00122639289893 -0.0033481465703)
(0.0173001176941 -0.0262648498017 -0.0167424916329)
(0.491203410512 -0.0191668260553 -0.0170786148394)
(0.22412187794 -0.0899645290936 -0.0346703427043)
(-0.000400389673098 -0.00959082339595 -0.00144159442721)
(0.270583528334 -0.0128212898687 -0.00959118188256)
(0.11750072411 -0.0575926233145 -0.00808755369537)
(0.518502599082 -0.0698504055204 0.00560703748644)
(0.0379929782522 -0.0465003019396 0.00975690034954)
(0.164104319337 -0.070180286377 0.00548035178892)
(0.304066363261 -0.0292611406028 -0.000479109867792)
(0.0150807793153 -0.0218085227731 0.000673016714911)
(0.533652223337 -9.96230400441e-06 -0.0120188511019)
(0.307118279211 -0.00741302881313 -0.000847183176163)
(0.292971963794 0.00122639750215 -0.00334812728086)
(0.224121743966 0.0899644193909 -0.0346703776833)
(0.0173001733185 0.0262645768751 -0.0167427074903)
(0.270583465487 0.0128212612423 -0.00959117469928)
(0.117500796869 0.0575922638452 -0.00808755578317)
(-0.000400315601971 0.00959083281451 -0.00144163917186)
(0.029927394889 -0.0310093874336 0.00791814166196)
(0.0191280227586 -0.0111658755453 0.00408209539912)
(0.00200452655981 -0.00262681384462 0.00137399472728)
(0.0202823612821 -0.0142818382605 0.00150052885715)
(0.0102677832514 -0.0123038073114 0.00213886095096)
(0.00909538030742 -0.00659737566787 0.000902528770558)
(0.000841721381499 -0.00102113961681 3.54102410835e-05)
(0.00420687562118 -0.0082700485921 0.000146251727041)
(-0.00179706812591 -0.000715409497689 -0.00688561195179)
(-0.00175183970801 -0.00265875348201 -0.00246043852861)
(-0.00172806710857 0.00202872443831 -0.00016034661893)
(-0.00109796776109 -0.00079173287622 -0.000262176923127)
(0.0384675230669 -0.00468105781885 -0.00819725655373)
(0.0390071100541 -0.00875389729803 -0.00629421528283)
(0.017233120851 -0.00294245977082 -0.000827544424887)
(0.0215056997148 -0.000988918762916 -0.00233652136214)
(0.0129355188087 -0.00177898571515 -0.000405570851166)
(0.00774247039074 -0.000229406935879 -7.16668779782e-05)
(0.0166047305362 -0.000305265214916 -0.000392226186269)
(0.00697324047242 -0.000341028863352 -2.53075488591e-05)
(0.00586191073135 -7.66671542306e-05 5.27535933226e-05)
(0.0142386165053 -0.000388452513259 0.000412901219739)
(0.00565295267381 -0.000279171034274 4.98073658892e-05)
(0.00511193244575 -0.000287888892612 0.000158583444917)
(0.0100157730156 -0.00112842642027 0.00139637243211)
(0.00488455286726 -0.000591756114466 0.000169307147616)
(0.0036220707937 -0.0010370459764 0.000370858577672)
(0.0027173844937 -0.0014837103624 0.000389550458277)
(-0.00175844030374 -0.00146824887296 -0.00125204046236)
(-0.00091436878906 -0.000476790739567 -0.000129658641791)
(0.00278743386012 0.000894934331036 0.000977132956039)
(-0.00112412833608 0.000138259521624 -8.40789040663e-05)
(0.000988896924004 0.000513509141774 4.22375405691e-05)
(0.010871983945 0.000687812827076 0.00107634819377)
(0.00195623321356 0.000342715782997 4.29482260461e-05)
(0.00389391492708 0.000283987729244 9.8474384169e-05)
(0.0143682494831 0.000189764058697 0.000604480845867)
(0.00438862368814 -1.76652041057e-06 4.79595052465e-05)
(0.0051213245675 5.94558750102e-05 7.54436932856e-05)
(0.0152365354379 -7.52160892155e-05 0.000270076659586)
(0.005276369203 -0.00013554911022 2.00072499333e-05)
(0.00545063161461 -1.05012827841e-05 4.49855953267e-05)
(0.0152289163336 -0.000272134899006 0.000289491474812)
(0.00547832095945 -0.000137052778176 -4.32291519524e-06)
(0.00557103947598 1.65606195279e-05 1.07359913539e-06)
(0.0228387988816 -8.59042911601e-05 -2.350183638e-05)
(0.00566051811581 -1.85250309956e-05 -8.82043359335e-05)
(0.00584324664798 9.9884553399e-05 -0.000102091036719)
(0.0390228420525 0.00891730330907 0.00627504742146)
(0.0173644121284 0.00317680928116 0.000881272768189)
(0.0502148547399 0.013367796293 0.00640981429058)
(0.0409672183063 0.00699771408138 0.00820375727012)
(0.012965512874 0.00187867089179 0.000461613064719)
(0.00763416791622 0.000188940451026 0.000125891325721)
(0.0357247128788 0.00466911347334 0.006789600259)
(0.026333569079 0.00118961792408 0.00239095570771)
(0.00686982091771 0.000294123809342 5.46696746267e-05)
(0.00579093195202 2.17310418543e-05 -2.60194123252e-05)
(0.024748454427 0.00104531363777 0.00181972164286)
(0.0219126254476 0.000459653315228 0.000196039367222)
(0.00559758776316 0.000222291630504 -4.56866557075e-05)
(0.00509135083729 0.000201227781943 -0.000144686489746)
(0.0212799604084 0.000710249053923 9.26794033862e-05)
(0.0192158403391 0.00094822255069 -0.000917701659857)
(0.00487007775694 0.000492831869406 -0.000172189509429)
(0.00358098385494 0.000909724516831 -0.00039351604639)
(0.0182210506104 0.0015271977684 -0.00108365486722)
(0.013139802486 0.00280050295153 -0.00206419348821)
(0.00269120424513 0.00136633068001 -0.000413865307615)
(0.00996108430295 0.003833245895 -0.00218024998606)
(-0.000717752015629 0.000402966313818 7.50485037675e-05)
(-0.00152253133472 0.00105861531029 0.00151122671179)
(-0.000855591773462 -0.000124188211764 8.57436590091e-05)
(0.00104701208878 -0.000497943161241 -2.57849937312e-05)
(-0.00123029226079 -0.000646481722267 0.00101293792572)
(0.00609984883364 -0.00234961706532 -0.00107477749651)
(0.00198513753816 -0.000314152974391 -4.76993404237e-05)
(0.00391134456305 -0.000244388109241 -0.000115324768092)
(0.00944345592526 -0.00200949091401 -0.00110677094176)
(0.0157923781873 -0.0014313935977 -0.00132548802073)
(0.00439402076516 4.17917801779e-05 -9.18348659573e-05)
(0.00510584294455 -3.97011636615e-05 -8.02540147927e-05)
(0.0173682394362 -0.000783876999919 -0.000950862716202)
(0.0197074461626 -0.000463628990603 -0.000865232884441)
(0.00525238713783 0.000150940649628 -5.48833840189e-05)
(0.00542424108472 3.41148951806e-06 -3.40035636716e-05)
(0.020207320205 -6.8844952889e-05 -0.000518919032301)
(0.0208349374059 -2.86235018115e-05 -0.000512256657349)
(0.00545619401604 0.000122422163852 -1.33308213058e-05)
(0.00555766662215 -6.19645115832e-05 4.24197673851e-05)
(0.0209576233266 0.000197725122993 -0.000321575604451)
(0.0215441145073 0.000203972899422 -0.000305787156129)
(0.00561229964027 -4.68674290173e-05 0.000107699698262)
(0.0057661897411 -0.000168234792776 9.85439627346e-05)
(0.0219902281956 0.000406849002852 -4.34537233682e-06)
(0.0227010639292 -0.000203721733731 -4.02602015613e-05)
(0.000835645427245 0.00101308986803 -3.76027415162e-05)
(0.0202240554293 0.0142095685417 -0.00150962190551)
(0.0102549172009 0.0122796288425 -0.00213842735983)
(0.0190118846868 0.0110120296129 -0.00416144688926)
(0.00199328975366 0.0026018909949 -0.00139051247376)
(0.0408196257189 0.0233208952834 -0.0067239433383)
(0.0298835959131 0.0309179107463 -0.0079894221224)
(0.00420325904264 0.00826027999929 -0.000146540140333)
(0.0124662287173 0.0194539401958 -0.00485894269185)
(-0.000844285988416 0.000678474746693 0.000152986460052)
(-0.0013108758308 -0.00211351787095 0.000419099555413)
(-0.00134594266991 0.00153830592589 0.00295412950966)
(0.00553529079286 -0.0106379547018 0.0104216036491)
(0.164097691588 0.0701748613988 -0.00548629175695)
(0.30408840938 0.0292666702624 0.0004782726243)
(0.0379686548342 0.0464493143595 -0.00980054604934)
(0.222922373387 0.100600514466 -0.0204495120743)
(0.518547186775 0.069862534976 -0.00564660550587)
(0.307137888765 0.00741501902181 0.00084927049186)
(0.292923187809 -0.00122797749023 0.00337999922713)
(0.52803573694 0.0247001791304 0.000604597190078)
(0.533803823196 2.29741076956e-05 0.0119639272907)
(6.25253263606e-06 -0.00973938066018 0.00171812456467)
(0.2704988887 -0.0128150296927 0.00964038330539)
(0.117770849528 -0.056920016668 0.00824516094282)
(0.0203104857461 -0.0226541467638 0.0197726335326)
(0.491557644074 -0.0192029762764 0.0169787543426)
(0.225644529219 -0.0890947891908 0.0356177035892)
(0.304088337891 -0.0292667181311 0.000478331634471)
(0.0150732522512 -0.0217935671188 -0.000674917688174)
(0.222922366254 -0.100600531058 -0.0204495160669)
(0.518547186757 -0.0698625535918 -0.00564661868982)
(0.0379686359548 -0.0464493482261 -0.00980055018161)
(0.292923125909 0.00122795606804 0.00338007446993)
(0.52803568035 -0.0247001405528 0.000604573584238)
(0.533803743784 -2.29861430463e-05 0.0119639154728)
(0.117770902778 0.0569199071062 0.00824515382143)
(6.24224963221e-06 0.00973941950739 0.00171811369324)
(0.491557622004 0.0192030855211 0.0169786911462)