/*--------------------------------*- C++ -*----------------------------------*\
  =========                 |
  \\      /  F ield         | OpenFOAM: The Open Source CFD Toolbox
   \\    /   O peration     | Website:  https://openfoam.org
    \\  /    A nd           | Version:  7
     \\/     M anipulation  |
\*---------------------------------------------------------------------------*/
FoamFile
{
    version     2.0;
    format      ascii;
    class       volScalarField;
    location    "6";
    object      p;
}
// * * * * * * * * * * * * * * * * * * * * * * * * * * * * * * * * * * * * * //

dimensions      [0 2 -2 0 0 0 0];

internalField   nonuniform List<scalar> 
5218
(
1.59748247051
1.57080197471
1.56655633358
1.56327870817
1.55976969139
1.55637198565
0.025549219564
0.0254813228799
0.0218266458333
0.0165729265096
0.0109650538564
0.00542257275572
1.5917364339
1.56977939862
1.56613652483
1.56288624634
1.55857847423
1.55227690399
1.54652060839
0.0241376652284
0.026649026965
0.0223311319046
0.0165268160986
0.0108188893448
0.00536639082809
1.59093678616
1.56957003906
1.56606138203
1.56275271991
1.55786352359
1.54755882804
1.50780979506
0.958829022826
0.197093227472
0.0295021196817
0.0272860036057
0.022442330554
0.0164743529516
0.0107389312144
0.00529473587674
1.5924124085
1.57026723742
1.56636580287
1.56314768781
1.55935977036
1.55492913915
1.55025235281
0.0245726288422
0.0259972066066
0.0220534660929
0.0165453304759
0.0108909776096
0.00540764328406
1.60295535593
1.57165335346
1.56681650904
1.56354013601
1.55994800115
1.55654382438
0.0259790899897
0.0257186899995
0.022486981935
0.0173788867741
0.0117528715454
0.00596760550286
1.57461177808
1.5697246641
1.56662361164
1.56355050599
1.56025155187
1.55681004482
0.0253671896638
0.0264996962256
0.0223996005022
0.0166559553683
0.0108746346585
0.00474276160533
1.57121460665
1.56807331853
1.56536026742
1.56219843793
1.55798090119
1.55492273937
1.54910248857
0.0261209758714
0.0267038326529
0.0222896618156
0.0158851291409
0.00978708092583
0.00542430987281
1.57075362322
1.56807327239
1.56536028005
1.56219849498
1.55798098277
1.55029671116
1.51302448427
0.938442861525
0.140505380078
0.0261208824271
0.0267037471534
0.0222895513906
0.0158850453717
0.00978702430058
0.00522514203829
1.57250505327
1.56946791749
1.56649186309
1.56346865075
1.5599609005
1.55581661857
1.55410039805
0.0235614132339
0.0272098986728
0.023256693531
0.017004102625
0.0108426700583
0.00469761189518
1.58136800901
1.56951831582
1.56651843347
1.56335808797
1.55993817527
1.55662410877
0.0265084290105
0.026312182887
0.0221495416317
0.0167229800868
0.0111685091131
0.0055176114125
1.57289037312
1.56924735398
1.56659366241
1.56373055723
1.56064355476
1.55735005752
0.025102992085
0.0271409286518
0.022917464734
0.0168126313877
0.0108419492405
0.00463098232594
1.56966658048
1.56798157354
1.56539552986
1.56238197122
1.55839428292
1.55573951248
1.55096244469
0.0254276676471
0.0265471868467
0.02249457512
0.0161021453616
0.00982781260253
0.0050488957192
1.56927078491
1.56798153822
1.56539553757
1.56238201327
1.55839435066
1.55096049482
1.51456191011
0.930670429556
0.128506286904
0.025427599322
0.0265470839554
0.0224944674839
0.0161020545476
0.00982776689401
0.00466153492349
1.57086467652
1.56909378101
1.56652962416
1.56370404846
1.56046165193
1.55655274111
1.5554454501
0.0228164552275
0.0275877649485
0.0239252985559
0.0173584414882
0.010835445258
0.00449275142561
1.57912030809
1.56902290529
1.56645412137
1.56349861232
1.56026623046
1.55693686751
0.0265965822692
0.0268704656335
0.0224432130512
0.0168039659396
0.0112101469563
0.00527341369779
1.57336335668
1.5693892832
1.56658638725
1.56365252096
1.56049033228
1.55715202449
0.0251631856725
0.0269962375835
0.0227810741951
0.0167826189756
0.0108765382144
0.00467378010645
1.57012122591
1.56806816854
1.56536132522
1.56220274284
1.55799189366
1.55529274771
1.55068503513
0.0261022231307
0.026749758745
0.0223399223883
0.0159264266199
0.00981662274086
0.00488782498152
1.56971560456
1.56806813422
1.5653613318
1.56220277702
1.55799195629
1.55052230475
1.51412961864
0.931658264141
0.129596537291
0.0261022147135
0.0267496970678
0.0223398339776
0.0159263445095
0.00981657488168
0.00451374446954
1.57132404415
1.56920592371
1.56652644423
1.56362340759
1.56028431616
1.55627375281
1.55526311198
0.02305400302
0.0275153182694
0.0237229854213
0.0172447101455
0.0108494253129
0.00453080723828
1.57933610093
1.56920305984
1.56644853517
1.56342847865
1.56014365684
1.55684188298
0.0265302697328
0.0267062352945
0.0223578473928
0.016795577798
0.0112233695761
0.00528177689666
1.57677912208
1.5700843443
1.56655183382
1.56336692111
1.55995389909
1.5565518572
0.0256601163655
0.0260289397987
0.022075922209
0.0166228440578
0.0109838686645
0.00507523688304
1.57330021752
1.56938577974
1.56625076368
1.56307462105
1.55901455526
1.55328019236
1.54780496363
0.0242972400618
0.0273445602975
0.0230975053538
0.0168902132152
0.0108475366456
0.00484637543215
1.57281064983
1.56922878446
1.56619043751
1.56295021688
1.55839705653
1.54885546381
1.51125076677
0.942134961116
0.148705729287
0.0294141815315
0.0280052944255
0.0233113576684
0.0169307344321
0.0107915238064
0.00474417362271
1.57457080288
1.56969179708
1.56643374398
1.56330440287
1.55966149991
1.55529041311
1.55333731558
0.0244229957731
0.026802405939
0.0226254360784
0.0167273936186
0.0108619793481
0.00487962775966
1.58273362045
1.57066690351
1.56654163627
1.56324748839
1.55978424096
1.55649325275
0.0262858152401
0.0258057260248
0.0219359502707
0.0167085373023
0.0111722953891
0.00560000798905
1.58273405882
1.5740604574
1.60287612849
1.57396156722
1.57066716145
1.56831602319
1.57180228877
1.56763144525
1.5665417054
1.5649183918
1.56682355582
1.56438409389
1.56324734435
1.5615299273
1.56354253798
1.56096395296
1.55978393859
1.55816204188
1.5599977393
1.55741992003
1.55649290652
1.55658886346
0.0254077185693
0.0254043167583
0.0262854578379
0.0267211664344
0.0258902572971
0.0262762366597
0.0258059360909
0.0241674089337
0.0258773217884
0.0237028414345
0.021936369941
0.0194005836886
0.022563309026
0.0188309485361
0.016708960538
0.0139498893642
0.0174498090712
0.0132961396252
0.0111726250961
0.00838950334246
0.0118760103983
0.0076447183327
0.00560012686576
0.000871262783311
0.00618798945301
0.000912511971263
1.55520707322
1.555290243
1.55326876743
1.55643720783
1.55524418815
1.55497823401
1.55040057018
1.55333727218
1.55031344086
0.0238095848145
0.019425628371
0.024776954648
0.0203115335627
1.5112507838
1.15172812377
1.54657277325
1.5078476064
1.16716163617
0.942134965587
0.355860245466
0.958765834387
0.38164969099
0.0155745441545
0.148705608445
0.0191573214157
0.0167362730773
0.1965344294
0.024661841267
1.15172797634
1.5478050241
1.5078476113
1.16716157653
1.54657279894
0.355860132887
0.958765687558
0.381649614863
0.0191573808161
0.015574647412
0.196534622378
0.0246619042284
0.0167363774614
1.55326891724
1.55655213444
1.55520734361
1.5549784217
1.55040070184
1.55643750174
1.55524451841
1.55031356497
0.0194257520127
0.0238098177028
0.020311752523
0.0247775247761
1.57406010143
1.60287564459
1.57396116175
1.56831584773
1.57180193586
1.56763125662
1.5649184366
1.56682344092
1.56438418128
1.56153017863
1.56354268552
1.56096419987
1.55816236137
1.55999803031
1.55742031406
1.55658935441
0.0254081943555
0.0254050408864
0.0267211238408
0.0258908987226
0.0262763603748
0.0241670916275
0.0258772914471
0.0237026986706
0.019400212246
0.0225631262059
0.0188306962252
0.0139495045362
0.0174495172351
0.0132958525816
0.00838922548867
0.0118757275253
0.00764454254355
0.00087123389048
0.00618787772359
0.000912488988289
1.60295641352
1.57379157807
1.58278476312
1.57270972448
1.57165396351
1.56761507547
1.57119919106
1.5677931228
1.56681656675
1.56438646745
1.56704457444
1.56457906542
1.56353982378
1.56092604932
1.56372272105
1.56114276861
1.55994752828
1.55739760086
1.56016176477
1.55766277377
1.55654342869
1.55676063786
0.025731126336
0.0260025285768
0.0259792608484
0.0260961021248
0.0264401120153
0.0266157017741
0.0257189938433
0.0236102946072
0.0260825953475
0.0238005837257
0.0224873212726
0.0187583212996
0.0225419280327
0.0187589051657
0.0173793197663
0.013186502716
0.0173132179915
0.0131894235519
0.0117531650625
0.0074266416925
0.0117339537241
0.00739937416945
0.00596766379061
0.000882665430195
0.00571114057531
0.000836401189914
1.55517279087
1.55492890072
1.55034560058
1.55650305126
1.55514887341
1.55523720585
1.5532107346
1.55025231731
1.55327160956
0.0251078061372
0.0200914926552
0.0248741433699
0.0184110913209
1.50780980047
1.16716284216
1.54775524019
1.51121242873
1.15170115059
0.958829184603
0.382018841236
0.94214558056
0.355969599387
0.0166435401654
0.197093299862
0.0253199346117
0.0128889420055
0.14883082312
0.0187508899441
1.16716295072
1.54652067388
1.51121246172
1.15170112475
1.54775517181
0.38201897236
0.942145598906
0.355969688949
0.0253198757928
0.0166431890035
0.148830800394
0.0187508187099
0.012888729595
1.55034571558
1.55637228339
1.55517298863
1.55523745861
1.55321083127
1.55650333363
1.55514904322
1.55327167946
0.0200912144277
0.0251075646083
0.018410880528
0.0248737928245
1.5737908482
1.58278391379
1.57270905375
1.56761486493
1.57119864745
1.56779294966
1.5643867003
1.56704454665
1.56457926561
1.56092643035
1.56372303749
1.56114315638
1.55739802238
1.56016218248
1.55766314486
1.55676102574
0.0257310552041
0.0260022573185
0.0260958336127
0.0264398771814
0.0266152379839
0.0236099541604
0.0260821869837
0.0238000136827
0.018757986437
0.0225413150313
0.0187584272395
0.0131862029193
0.0173127771676
0.0131891299738
0.00742655556661
0.0117336965753
0.00739927963287
0.000882685263147
0.00571115468861
0.000836417041288
1.58136881699
1.57248148358
1.57934697002
1.57161930677
0.00551763377872
0.000831834515368
0.00525784286804
0.000799701038166
1.57248086887
1.57934627079
1.57161883233
0.000831870011502
0.00525771605885
0.000799694156775
1.57912097313
1.57147882218
1.57910968285
1.57145453645
0.00527352080536
0.000796668034559
0.00528406620292
0.000798447976571
1.57147835909
1.57910913889
1.57145414502
0.000796639984456
0.005283847652
0.000798394448396
1.57933661223
1.5715892465
1.58133765862
1.57256385839
0.00528192003056
0.000802823290288
0.00562738444146
0.000875972937068
1.57158885734
1.58133719776
1.57256351394
0.000802783110268
0.00562718695117
0.00087593863707
1.57260090812
1.57457105803
1.57165858346
1.59741228754
1.57399270799
1.59235311693
1.57289957753
1.56816490192
1.5696919788
1.56794110742
1.57073652292
1.56828005687
1.5702271024
1.56801060556
1.56499367911
1.56643380678
1.56490583742
1.56650065205
1.56489872784
1.56633961994
1.56478897245
1.56168960885
1.56330432476
1.56156823283
1.56325542978
1.56155595232
1.56313822632
1.56136237127
1.5582217276
1.55966131117
1.55755736365
1.55978821699
1.55802546745
1.55938279601
1.55721942325
0.0266549729795
0.0244229318737
0.0270137187981
0.025562433562
0.0262028531225
0.0247658557282
0.0264452659874
0.0244085152625
0.0268025404257
0.0251748902162
0.0256396526089
0.0241379516195
0.026181434372
0.0245885332113
0.0194100438844
0.0226257170241
0.0197246254781
0.0219359436849
0.0193819189583
0.0221856365226
0.0194600548878
0.0138022641115
0.0167276765255
0.0137613801711
0.0166656913691
0.0138793920803
0.0166446767991
0.0137999734235
0.00811764762619
0.0108621504102
0.00793355381718
0.0110792530695
0.00828022672327
0.0109818282294
0.00818003123716
0.00167690895726
0.00487965179178
0.00160357468265
0.00556512963633
0.00102389393227
0.00548346503419
0.0010025133532
1.57095422807
1.57281069148
1.57065210609
1.59168421063
1.572081207
1.59090415395
1.57172478326
1.54916128295
1.548855432
1.53889915556
1.55231671561
1.54739850781
1.54759467869
1.53634822259
0.00154354482619
0.00474417117891
0.00149233713665
0.00540926360934
0.00100997508666
0.00532519577527
0.00097020533401
1.57065204848
1.57330002385
1.57095407665
1.59090411917
1.57172473291
1.59168403832
1.57208105223
1.53889918599
1.55328030038
1.5491613593
1.54759473005
1.53634825644
1.55231682228
1.54739855341
0.00149234266362
0.00484633313983
0.00154354500816
0.00532517945514
0.000970226809303
0.00540924058996
0.00100996718305
1.57165834543
1.57677875513
1.57260060202
1.59235284411
1.57289933558
1.59741185558
1.57399238659
1.56794098316
1.57008409754
1.56816470605
1.57022689097
1.56801043315
1.57073623807
1.56827985529
1.56490586021
1.56655175292
1.56499369132
1.56633951574
1.56478896755
1.5665005655
1.56489878646
1.5615683877
1.56336704801
1.56168977253
1.56313830289
1.56136247249
1.56325553014
1.56155613303
1.55755756732
1.55995414528
1.5582220178
1.55938294894
1.55721961645
1.5597884739
1.55802576831
0.0270137143826
0.0256601932311
0.0266549273083
0.0247659165472
0.0264451871531
0.0255625816386
0.0262029256881
0.025174705297
0.026028769602
0.0244081248436
0.0261812900582
0.0245882598792
0.0256395507652
0.0241377535389
0.0197244046208
0.022075586991
0.0194096262876
0.0221853583972
0.0194597749962
0.0219356738377
0.0193816996641
0.0137611890112
0.0166225032632
0.0138019114749
0.0166444134631
0.01379975239
0.016665373591
0.013879142066
0.00793346788049
0.0109835835397
0.00811747066674
0.0109816505056
0.00817991182068
0.011078991
0.00828008309685
0.00160358164791
0.00507512122939
0.00167689407229
0.00548337368573
0.00100252017555
0.00556501377226
0.0010238739569
1.58605972807
1.59091077487
1.61432405042
1.58602972671
1.602911742
1.58242408601
1.59045143118
1.57846543363
1.57415554158
1.57516380265
1.57843934545
1.57401990694
1.57776765294
1.58025861287
1.56984946538
1.57221179268
1.57220258612
1.56982097528
1.57180102334
1.57021879802
1.5701369495
1.56874398788
1.56788812375
1.5677658645
1.56869303805
1.56766997474
1.56902804214
1.56882936371
1.56601608487
1.56703059391
1.56687555967
1.56598045489
1.56687088428
1.56614872636
1.56603693902
1.56524746021
1.56451180486
1.56440785711
1.56519954092
1.56441969644
1.56533978301
1.56521982646
1.56275550514
1.56365935125
1.5635584714
1.56271252185
1.56360014708
1.56283523888
1.56272676077
1.56189800424
1.56111476525
1.56098414203
1.56181038437
1.56103200122
1.56194312817
1.56183849654
1.55928596622
1.56018275576
1.56006415447
1.55916371177
1.56014847277
1.55937619162
1.55921333286
1.5584377852
1.55773577993
1.55752778836
1.55817409831
1.55760858398
1.55845822992
1.55830990225
1.55627383559
1.55696103385
1.55673746383
1.55628470088
1.55677261791
1.55663512717
1.55632421051
1.55616298632
1.55650181969
1.55650021934
1.5562726779
0.0257956167141
0.0254787361742
0.0256119578532
0.0254702360703
0.0257151453826
0.025564213335
0.025661499222
0.0261204280859
0.0258364708068
0.0259178781728
0.0260906438231
0.0260239655818
0.0259619568957
0.0260399988148
0.0262876128196
0.02609218218
0.0260289311097
0.0263390665739
0.0261118587818
0.0261859273157
0.0261705639877
0.0252035172858
0.0256870436115
0.0256855302917
0.025392861454
0.0257221859002
0.0252208747027
0.0251870608722
0.0244502897697
0.0235727600995
0.0235965866272
0.0245808734163
0.0235761932429
0.0244110779125
0.0244650093529
0.0213599427685
0.0224250627052
0.0225345430977
0.0214181154306
0.0224867196366
0.021329139885
0.0214001101714
0.0200942952272
0.0187732529019
0.0188631113631
0.0201188722226
0.0188250034191
0.0200116157117
0.0201467213412
0.0161217364623
0.0173700900191
0.0175028510136
0.0160966821038
0.0174614599002
0.0160660015158
0.0161478533277
0.0147134002831
0.0132884242937
0.0133503856633
0.014678764104
0.0133395469573
0.0146257982602
0.014737930134
0.0105317635386
0.0118421050404
0.0119280021072
0.0104824542195
0.0119233885725
0.0104867231493
0.0105279880304
0.00911247782309
0.00765485447571
0.00767317985344
0.00906614838945
0.00768355003733
0.00903972897825
0.00910169228977
0.00455196889898
0.00617463783985
0.00618250380997
0.00454078153653
0.0061972331479
0.00452497579627
0.00461513106482
0.00283927023541
0.000911518816118
0.000933540476292
0.00284570305972
0.000912706940829
0.00265802917044
0.00284847544459
1.5546809826
1.55497033182
1.55658942637
1.55496495134
1.55586570172
1.5551310262
1.55569830354
1.5513699239
1.55093020698
1.55078042962
0.0234587192819
0.0248572261979
0.0247725235033
0.0238722983077
0.0247069183529
0.0241039668574
0.0235398386015
1.54373805471
1.54518114872
1.54134708595
1.5337016097
1.54372999156
1.53603343805
1.53368602044
1.48268849094
1.16049478283
1.38710075311
1.37742221528
1.49032929879
0.952284025652
0.762283966667
0.757424666225
0.373945508073
0.567940558044
0.562190212586
-0.0183516867617
-0.00118721828745
-0.00355542404851
-0.0111967214878
-0.0481807100937
0.177804754949
0.0508852752737
0.0484308333116
-0.0312674147678
1.48268842703
1.16049462428
1.38710070086
1.37742219348
1.49032927377
1.54373804233
1.54518116945
1.53370162176
1.541347054
1.53603347595
1.54373000925
1.53368603455
0.952283969725
0.762283894951
0.757424683995
0.373945476524
0.567940369626
0.562189908384
-0.0481808108452
0.177805053436
0.050885207961
0.0484312083986
-0.0312678587431
-0.0183518045154
-0.00118729095295
-0.00355536509677
-0.0111970196142
1.5546813195
1.55497065485
1.55496525653
1.55658981732
1.5551312908
1.55586598869
1.55569863823
1.55137004885
1.55093040378
1.55078060582
0.0234592953864
0.0248578292282
0.0238729363863
0.0247734366061
0.0241044482786
0.0247076596268
0.0235409171142
1.58605924253
1.59091030258
1.58602925337
1.61432353081
1.58242362098
1.60291118647
1.59045094106
1.5784649933
1.5741551231
1.57843889415
1.57516336261
1.57776721418
1.57401948916
1.58025813752
1.5698492058
1.57221146417
1.56982066052
1.57220221175
1.57021852055
1.57180074822
1.57013672565
1.56874378292
1.56788793022
1.56869285245
1.56776570325
1.56902785511
1.56766983668
1.56882917997
1.56601601829
1.56703052047
1.565980407
1.56687547531
1.56614865854
1.56687081584
1.56603689352
1.56524746292
1.56451189818
1.56519963091
1.56440796393
1.56533982815
1.5644197415
1.56521980302
1.56275567382
1.5636594724
1.562712636
1.56355855158
1.56283536392
1.56360028904
1.56272687083
1.56189824171
1.56111504795
1.5618106683
1.56098441744
1.5619434431
1.56103229201
1.56183875112
1.55928629786
1.56018310403
1.55916406001
1.56006457337
1.55937654699
1.56014885891
1.55921372946
1.55843817071
1.55773614591
1.55817452482
1.55752825681
1.55845863238
1.55760888515
1.55831030229
1.55627427765
1.55696143345
1.55628517772
1.5567380069
1.55663543835
1.55677294338
1.55632502057
1.55616346612
1.55650229019
1.55650034957
1.55627373193
0.0257963917527
0.0254796547835
0.0254708258398
0.0256127268485
0.0255655547025
0.0257163524955
0.0256609678091
0.0261208704318
0.0258368527523
0.0260910175113
0.0259189934018
0.0259621753919
0.0260248671435
0.0260407358807
0.0262877588982
0.0260922921823
0.026339439074
0.0260292452683
0.0261860245878
0.0261120303607
0.0261711017819
0.0252032841948
0.0256869258172
0.0253925942403
0.0256854040671
0.0252206327465
0.0257220859981
0.025186852247
0.0244499712231
0.0235725850314
0.0245807896209
0.0235965122521
0.0244109004185
0.0235759373873
0.0244647616763
0.0213595515803
0.0224247872603
0.0214178312359
0.0225343846538
0.021328810345
0.0224864193734
0.0213997530355
0.0200938517737
0.0187729831846
0.0201186403202
0.0188628424269
0.0200112907534
0.0188245797701
0.0201462981094
0.0161212251955
0.0173696775692
0.0160963077587
0.0175024394115
0.0160655973935
0.0174609663469
0.0161472998629
0.0147129074487
0.0132881190775
0.0146784963025
0.0133500684946
0.0146254543558
0.0133391018961
0.0147374961433
0.0105312703241
0.0118417131672
0.0104821558637
0.011927669308
0.010486308628
0.0119228858232
0.0105275782255
0.0091120938681
0.00765464964148
0.00906591709659
0.00767297528595
0.00903934770066
0.00768324250711
0.00910137071455
0.00455176186022
0.00617445537874
0.00454068779578
0.00618222702528
0.0045247734343
0.00619694647445
0.00461488822947
0.00283913635048
0.000911490533121
0.00284562493896
0.00093351910264
0.00265790104844
0.000912651640173
0.00284840447976
1.57409301181
1.59241298749
1.57297113829
1.57683228721
1.57279912702
1.57464381703
1.5717385684
1.56834618815
1.57026755453
1.56804127566
1.5701674751
1.5682293701
1.56973812368
1.56796986406
1.56493841937
1.56636583146
1.56480818697
1.56660822803
1.56503747424
1.56645437928
1.56492039832
1.56156053128
1.56314747816
1.56135678865
1.56339709115
1.56170399428
1.56331108908
1.56156324257
1.55798379845
1.55935946621
1.55717832523
1.55994030926
1.55816709451
1.55963967083
1.55751550107
0.0260398454173
0.0245729440897
0.026225329614
0.0257197873273
0.0265537833708
0.0241687821287
0.026747547009
0.0240069532478
0.025997506479
0.0244345035837
0.025939528032
0.0243463235155
0.0266321092967
0.0250561443841
0.0192858775108
0.0220537315725
0.0193472143118
0.0220218505563
0.0193529863851
0.0225280499335
0.0196402164196
0.0137807084294
0.0165455720292
0.0137078286837
0.016557198662
0.0137215158138
0.0166510723407
0.0136869537004
0.00814450662677
0.0108911145983
0.00809078922793
0.0108797408067
0.00798167452909
0.0107850676598
0.0078555254145
0.000995865538129
0.00540771844339
0.00099563474741
0.00490607842295
0.00163528197696
0.00481590666513
0.00158199330046
1.57212858153
1.59093683009
1.57176080324
1.57335046014
1.57100929257
1.5728483965
1.57069158824
1.5677362451
1.56957011341
1.56764480271
1.56941890656
1.56767551625
1.56925160154
1.56759463444
1.56459900636
1.56606140776
1.56453283583
1.56625832959
1.56466383765
1.56619601315
1.56459179515
1.56092641767
1.56275267368
1.5606299194
1.56307179291
1.5611288513
1.56294856515
1.56084894736
1.55567417057
1.55786344252
1.5536718823
1.55899428058
1.55614091354
1.55838239045
1.55426531992
1.54735239874
1.54755879589
1.53630804275
1.55324162219
1.54911555217
1.54882168498
1.53885932843
1.54129688135
1.53365525204
1.53364283035
1.54369589663
1.54513128478
1.54368171253
1.53598893469
-0.000236171924409
-0.00957046243045
-0.0160839220681
-0.00259817470054
0.0265232940577
0.0295021934912
0.0280590733757
0.0234225527161
0.0267966195297
0.0299465867758
0.0287754294349
0.0249349148077
0.0272860328636
0.0251938299978
0.0271548601011
0.025494330588
0.0279603450388
0.025849845697
0.0194166494036
0.0224423792031
0.0193942244851
0.0229908984337
0.0199205212299
0.0232186840011
0.0200364070404
0.0136304097612
0.0164744027718
0.0135549114145
0.0168130973564
0.0137258451656
0.0168566646608
0.0137186899105
0.00803312069826
0.0107389431142
0.00795303686263
0.0107889905968
0.00782857248535
0.0107427943701
0.00776779126749
0.00100490634025
0.00529473566305
0.000965886628773
0.0048145813718
0.00153677226234
0.00472250668057
0.00148772823866
1.57176072025
1.59173601737
1.57212830672
1.57284830514
1.57069151096
1.57335016867
1.57100906132
1.56764477097
1.56977923144
1.56773613377
1.56925153567
1.56759459207
1.56941876687
1.56767545004
1.56453287169
1.56613653524
1.56459907066
1.56619600876
1.56459181482
1.56625834442
1.56466391497
1.56062998293
1.56288639042
1.56092661307
1.56294860961
1.56084900783
1.56307193316
1.5611289944
1.55367196617
1.55857862826
1.55567434592
1.55838242885
1.55426537737
1.55899443388
1.5561410238
1.53630807692
1.55227706537
1.54735247679
1.54882175259
1.53885934997
1.55324175702
1.54911561256
0.762426450706
0.952331684657
0.757542424028
0.0515369653703
-0.0302378959001
-0.0469539505177
0.178313445887
0.0490762982557
0.028058967453
0.0241374807599
0.0265230964362
0.0299465425198
0.028775404002
0.0234223510061
0.0267964218137
0.0251937991689
0.0266488195798
0.0249347312956
0.0279602886033
0.0258497703465
0.0271546933763
0.0254941451651
0.0193942620328
0.0223309270486
0.0194164394222
0.023218584125
0.0200363569995
0.0229906913867
0.0199203386532
0.0135549241207
0.016526693299
0.0136302611893
0.0168565988799
0.0137186539569
0.0168129123805
0.0137257008596
0.00795304980818
0.0108187870385
0.0080330203679
0.0107427018558
0.00776776527027
0.0107888587916
0.00782846403109
0.000965905227773
0.00536633197759
0.00100486247934
0.00472251031192
0.00148772012993
0.00481449761462
0.00153675907327
1.57297071049
1.59748154832
1.57409242116
1.57464332662
1.57173815284
1.57683161784
1.57279857065
1.56804114532
1.57080158395
1.56834596036
1.56973785963
1.56796973613
1.57016708704
1.56822918466
1.5648083221
1.56655632978
1.56493856548
1.5664543867
1.56492051518
1.56660823064
1.56503761819
1.56135707453
1.5632789793
1.56156085302
1.56331130071
1.56156349247
1.56339732796
1.56170433893
1.55717863259
1.55977002638
1.55798412054
1.55963995296
1.55751576725
1.55994067519
1.55816744381
1.5508672981
1.55130574777
1.55071884654
0.0262250342894
0.0255489623869
0.0260394662627
0.0241684637601
0.0267472298393
0.0257194204
0.0265534059662
0.0244342600228
0.0254809400032
0.0240065192103
0.0266318133881
0.0250558915438
0.0259391171954
0.024345885714
0.0193470163171
0.0218262241837
0.0192854171827
0.0225277411458
0.0196399287639
0.0220213564118
0.0193525717265
0.01370765047
0.0165725526158
0.0137803530909
0.0166508217646
0.0136867378914
0.0165567960329
0.0137212250899
0.00809071867492
0.0109648390559
0.00814434787615
0.0107849126719
0.00785542626042
0.0108795145041
0.00798157309423
0.000995619360494
0.00542246406752
0.000995857144442
0.00481582185224
0.00158195902437
0.00490603094297
0.00163529680996
1.58609557691
1.6144829519
1.59101228538
1.59066920586
1.60307639183
1.58631605472
1.58247719329
1.56974124516
1.57209625746
1.57011859696
1.5700047815
1.57195347135
1.57007619551
1.57173797257
1.56598542686
1.56688445306
1.56604393757
1.56608183091
1.566998535
1.56612983963
1.56692380708
1.56270017081
1.56352327874
1.5626697659
1.56269864379
1.56364584028
1.5628103741
1.56355060691
1.55910222376
1.55991730693
1.55903166883
1.55906586953
1.56013349917
1.55932425637
1.55994920543
1.55621752671
1.55656643267
1.55619136555
1.55613358604
1.5569172575
1.55655968907
1.55654809527
0.0259860641878
0.0260525300161
0.0260114038925
0.0260926130744
0.0259559255749
0.0258468493609
0.0261864247315
0.0252639387326
0.0256198309306
0.0251368795979
0.0251507675838
0.0255722529067
0.0251412178293
0.0256423800337
0.0213439737245
0.0224996323887
0.0213579388017
0.0213591618481
0.0224290965428
0.0213024107652
0.0224977100879
0.0160120362981
0.0174407678734
0.0160650388902
0.0160735768225
0.0173585389147
0.0159991877667
0.0174436209424
0.0103282065184
0.0117906173372
0.010353752436
0.0103703116426
0.0117472108957
0.01032072373
0.0118039826048
0.00439226660146
0.00588976159543
0.00430140350546
0.0041639034162
0.00588598020509
0.00424748630014
0.00584802502879
1.56951868928
1.56807366971
1.56921717541
1.56795049592
1.56651841721
1.56499341202
1.56648745553
1.56503685668
1.56335781316
1.5616759274
1.56344741311
1.56182306917
1.55993778208
1.55834419763
1.56013529878
1.55861051342
1.55662373179
1.55682656655
0.0256191844151
0.0253299565159
0.0265088803351
0.0273628488315
0.0266180824553
0.0277924030606
0.0263127248808
0.0245459322338
0.0266785864943
0.0248337437532
0.0221501460594
0.0194927025639
0.0223263292821
0.0195871270056
0.0167234301647
0.0139288274982
0.0167619975614
0.0139460644504
0.0111687739824
0.00857092632838
0.0111854531685
0.00860048752169
1.57191112159
1.57250550107
1.57089011525
1.57339110229
1.57125345141
1.57134381915
1.57030389147
1.56811403137
1.56946813307
1.56789115494
1.56942048779
1.56802739703
1.56922243363
1.56786360559
1.56512865844
1.56649186084
1.56499728503
1.56662365514
1.56520833912
1.56654006478
1.56511046884
1.56193192703
1.56346846444
1.5618706157
1.56367172603
1.56212468443
1.563629036
1.56212285288
1.55859800561
1.55996066854
1.55826259107
1.56049037621
1.55891906481
1.56027897631
1.55874350376
1.55545704943
1.55581642395
1.55372787882
1.55712933443
1.55603551379
1.55625255385
1.5546396785
1.55410048282
1.55522880462
0.0230044759367
0.0165895484517
0.0224896673676
0.0158103621446
0.0271419168066
0.0235617116213
0.02783636848
0.0252116437324
0.0275315830624
0.0230505973636
0.0280254107806
0.0248890960265
0.0272101987644
0.0260606085108
0.0269479829632
0.0253415655481
0.0274653424432
0.0265059574272
0.0195846910001
0.0232570266038
0.020321248356
0.0227350518401
0.0197958435497
0.0236764685558
0.0206890382445
0.0137437450335
0.0170043803953
0.0138899846326
0.0167450001727
0.0137585615669
0.0172068100815
0.0139755304237
0.00796707879258
0.010842859263
0.00781859089789
0.0108403863693
0.00790055710432
0.0108186873609
0.00772486061714
0.00160423874444
0.00469767092134
0.00153912848029
0.00464362468636
0.00155945852343
0.00451211747759
0.00145661570023
1.57008599342
1.57075372452
1.56983187458
1.57013647776
1.56970575238
1.56972843171
1.56955377894
1.51302450163
1.14920006475
1.55065837089
1.51410553317
1.14473478272
0.938442927849
0.349056938854
0.931658060154
0.338094831762
0.0101901985855
0.140505405426
0.0152701587942
0.00893649526293
0.129711113336
0.0130532941518
0.00157950185925
0.00522517129645
0.0015179475495
0.00487452054678
0.0014345115178
0.00450086275681
0.00134239987224
1.56983179515
1.57121436407
1.57008581034
1.56972836635
1.56955370487
1.57013623189
1.56970559687
1.14920007885
1.54910251415
1.514105546
1.14473474289
1.55065834587
0.349056887564
0.931658010301
0.338094809711
0.0152700764751
0.010190064182
0.129711030111
0.0130532255542
0.00893640901017
0.00151795960517
0.0054242216076
0.00157946526763
0.00450085891724
0.0013423874826
0.00487444860017
0.00143449695124
1.57088976273
1.57461120961
1.57191063077
1.57134341884
1.57030358712
1.5733905754
1.57125302074
1.56789104312
1.5697243378
1.56811387109
1.56922225576
1.56786350784
1.56942019826
1.56802724674
1.56499736533
1.56662360738
1.56512877
1.56654005961
1.56511055544
1.5666236596
1.56520847155
1.56187081927
1.56355075391
1.5619322232
1.56362920589
1.56212307606
1.56367197115
1.56212499236
1.55826279257
1.5602518677
1.55859832691
1.56027918721
1.55874371882
1.56049071328
1.55891937073
1.55372796119
1.55681031971
1.5554572269
1.55625276385
1.55463972807
1.55712959547
1.55603563067
1.55522878097
0.0165892322747
0.0230040844785
0.0158100780475
0.022489293381
0.0278360883058
0.0253667654939
0.0271414795747
0.0230503912431
0.0280252071363
0.0252112580176
0.0275311898998
0.0260603187541
0.0264992525052
0.0248885950379
0.0274651074225
0.0265057296745
0.0269476015419
0.0253411181873
0.020320933098
0.0223991079367
0.0195842066132
0.0236761119196
0.0206888003734
0.0227346275588