/*--------------------------------*- C++ -*----------------------------------*\
  =========                 |
  \\      /  F ield         | OpenFOAM: The Open Source CFD Toolbox
   \\    /   O peration     | Website:  https://openfoam.org
    \\  /    A nd           | Version:  7
     \\/     M anipulation  |
\*---------------------------------------------------------------------------*/
FoamFile
{
    version     2.0;
    format      ascii;
    class       surfaceScalarField;
    location    "6";
    object      phi;
}
// * * * * * * * * * * * * * * * * * * * * * * * * * * * * * * * * * * * * * //

dimensions      [0 3 -1 0 0 0 0];

internalField   nonuniform List<scalar> 
14871
(
-1.81340572038e-13
1.01034581351e-12
1.22135657252e-13
2.9885910518e-13
-6.05646603163e-14
-3.20786787197e-12
2.46687990647e-12
4.69400497922e-13
5.5165441228e-13
-4.4911385414e-14
-1.01599960219e-13
-7.29908003801e-14
-1.05474856673e-14
-2.02159570115e-12
1.77484049455e-12
1.60756460611e-13
1.40393119414e-13
-8.95110236195e-15
-1.91026403864e-14
-1.57930565263e-14
-8.94631981914e-15
-1.63670613771e-12
1.5436514584e-12
1.46608082387e-13
-8.01484136303e-15
-8.76565111836e-15
-1.39004113256e-14
-1.39261468363e-14
-2.47630242457e-14
-1.45522230111e-12
1.3247726947e-12
3.78661718428e-13
-1.22683080242e-13
-2.6736416426e-14
-3.51474493932e-14
-3.88821473796e-14
-6.9369935938e-14
1.03950106251e-12
-2.45994432232e-13
-1.09247332392e-12
-6.87013063326e-14
-9.38079022064e-14
-9.52977020738e-14
1.01882027074e-13
1.36221416257e-13
2.29387903234e-13
1.58652293358e-13
1.66108131027e-14
2.1914070251e-14
1.78246011168e-13
-4.59025035759e-13
9.88102149091e-14
2.25766553223e-14
2.50573577686e-14
3.25796517171e-14
2.33200016945e-14
2.25171425578e-14
1.73925766071e-14
1.91854565902e-14
-6.03504920166e-13
9.54810446137e-13
-3.61961313403e-13
-8.80803707344e-14
1.86832770685e-14
3.148794791e-14
2.93795821626e-14
3.18990760406e-15
-1.20356229894e-12
1.36033660013e-12
-1.0100440921e-13
-7.76660948058e-14
3.7892357108e-15
7.55656218075e-15
7.36049491879e-15
-1.44324972926e-15
-1.45341082877e-12
1.51086043839e-12
-1.13870321902e-14
-4.44952355559e-14
-3.20054538202e-16
-3.70720581781e-16
5.66640081154e-16
-1.23276178556e-15
-1.54420943481e-12
1.56711821245e-12
-6.85073319459e-16
-2.04714016393e-14
1.50626241203e-16
-1.11621351349e-15
4.46028779065e-16
8.3055359304e-15
-1.57255586063e-12
-2.71554424447e-14
7.51730461835e-14
1.42890079763e-14
8.74942296962e-15
8.29717170451e-15
2.54502215506e-13
2.80363019199e-13
4.44081526148e-13
5.05951370696e-13
-3.91574551296e-14
2.6100982811e-14
9.72977806274e-13
2.90078680355e-13
-4.05309781107e-13
-3.26996645731e-12
2.83906244958e-12
2.20092805065e-13
6.1612098384e-13
-1.86763912567e-13
-2.58327813832e-12
2.45093846223e-12
1.12018403657e-13
2.07085185131e-13
-1.94894700214e-13
-2.41137582805e-12
2.45424543108e-12
1.29391967575e-13
2.26331296848e-14
-5.31120536747e-13
-2.59503219494e-12
2.88018949662e-12
4.1149826251e-13
-1.65535027393e-13
-1.70646140533e-12
-3.33920819961e-12
3.9498975179e-12
1.72101748096e-12
-6.25245394246e-13
-3.52603037148e-13
-6.0474197899e-13
2.90831683047e-13
7.39486620647e-13
-7.29733252275e-14
-1.76004939988e-13
1.37204199931e-12
2.27140445919e-12
-2.64460182713e-12
9.06373203501e-13
-5.21684015322e-13
-3.30788657395e-13
-8.76739301832e-13
6.13051099605e-13
-2.27097029292e-12
2.19711975287e-12
-5.96572685703e-13
5.73721261463e-14
1.43278689602e-13
-2.13786996222e-12
2.13225675946e-12
-1.06013946755e-13
-3.16515403723e-14
1.18943154426e-14
-2.13761257226e-12
2.16913350175e-12
-3.3556038265e-15
-4.00596411671e-14
-4.30263755972e-16
-2.19412322878e-12
2.21867448947e-12
4.9650912074e-15
-2.90860880743e-14
2.14503288146e-14
-2.21705208109e-12
-6.79751539773e-15
7.66579678649e-14
3.67695427565e-13
3.75184160862e-13
7.00855430374e-13
6.82006853555e-13
-8.05199393752e-19
-7.60956911287e-15
9.67575928679e-13
2.90034445632e-13
-1.16878088799e-17
-3.22302183734e-12
2.83575235351e-12
-2.20075978467e-13
6.07357150171e-13
-5.54036119277e-18
-2.63769583179e-12
2.55129439649e-12
-1.1201477279e-13
1.98421748587e-13
4.03395642476e-18
-2.56619535383e-12
2.68977432627e-12
-1.29394131005e-13
5.81112470168e-15
7.80340515477e-18
-2.99030979411e-12
3.64380416277e-12
-4.11498231105e-13
-2.42003940894e-13
2.95736381205e-18
-4.85593194009e-12
7.19755299462e-12
-1.72103039493e-12
-6.20593617366e-13
7.53159494563e-20
-1.39314861755e-12
-1.15840804573e-11
5.65210000026e-12
2.10442895655e-12
2.67789564014e-12
8.240216726e-12
-1.22428554311e-12
-1.21934685607e-12
-1.52900253008e-12
-1.72477624746e-12
-2.59656147383e-18
-7.65074964334e-12
7.58809759498e-12
6.26546448104e-14
-1.51038018945e-18
-7.17504518969e-12
6.69974738467e-12
4.75299315414e-13
-9.67968495848e-12
1.38040282591e-18
5.85281224022e-12
2.64460069324e-12
1.18227064634e-12
7.88987610342e-18
-3.85788330512e-12
2.94579958701e-12
5.96578345021e-13
3.15497483505e-13
2.97156863109e-18
-2.49295388023e-12
2.33754199138e-12
1.06024732725e-13
4.93841842153e-14
-2.74561504264e-18
-2.27356404e-12
2.2856663944e-12
3.36782028814e-15
-1.54674291734e-14
-4.07489767804e-18
-2.30434600475e-12
2.32833004267e-12
-4.94006132918e-15
-1.90399016506e-14
-4.18314759357e-18
-2.32395487566e-12
6.81754779219e-15
9.23713306164e-14
3.88467613854e-13
3.86407529546e-13
7.22352939357e-13
7.27542657855e-13
3.91547427611e-14
-5.72417151101e-14
9.78115401083e-13
2.89971580924e-13
4.05285951877e-13
-3.32529666567e-12
2.78126248779e-12
-4.69387377491e-13
6.08135603527e-13
1.86752320487e-13
-2.42772410231e-12
2.22164195571e-12
-1.60750251936e-13
1.80080078158e-13
1.948958213e-13
-2.11382795783e-12
2.06455058401e-12
-1.46603388062e-13
9.84940629895e-16
5.31134249631e-13
-2.05525483999e-12
2.06075144445e-12
-3.78657483065e-13
-1.57973371009e-13
-1.03950473611e-12
-4.08046020646e-13
1.70646871112e-12
-2.03318652097e-12
3.9819299306e-13
2.85996215574e-13
4.51574451232e-13
6.3850530282e-13
3.52603082256e-13
-1.79871148505e-13
-1.3024817887e-13
-4.24837549044e-14
-1.03792359156e-14
-1.3720440125e-12
6.82789901877e-13
4.58999037614e-13
3.46705590143e-13
-5.92943287784e-16
-7.55056397378e-14
-2.9971399638e-14
-6.13040298477e-13
-1.17053570996e-12
1.48059659286e-12
3.61952957188e-13
-5.89735417886e-14
-1.43272878371e-13
-1.67231580128e-12
1.79331004518e-12
1.01019874873e-13
-7.87412405682e-14
-1.19080329583e-14
-1.86732313207e-12
1.9219736088e-12
1.14130554006e-14
-5.41554991699e-14
4.18530823991e-16
-1.95617739095e-12
1.97953018205e-12
7.10007283116e-16
-2.44813291427e-14
-2.14602227553e-14
-1.97750005076e-12
2.71700252977e-14
8.22541983092e-14
3.4073221725e-13
3.25971623107e-13
5.92937324336e-13
6.29895510655e-13
1.81338296337e-13
9.98924208175e-13
-2.1713314218e-13
2.86870658254e-13
-3.74694258596e-13
6.05592704235e-14
2.98334173588e-13
-3.01493381858e-14
4.59499648694e-14
-1.83411066347e-13
1.05447611393e-14
1.68176848356e-13
-3.80060411401e-15
8.49044369474e-15
-1.42810219651e-13
8.94559092338e-15
1.37195904241e-13
-2.46061857643e-15
-8.70008992696e-16
-1.23387794911e-13
2.47645979413e-14
1.14158193559e-13
-7.09915516274e-15
-8.43502540497e-15
6.93703817481e-14
-7.67464889095e-14
4.97553822475e-14
-2.05882791275e-14
-2.17900529084e-14
2.48172374069e-14
-1.66069973606e-14
-1.99153049365e-14
3.9085738512e-15
7.79801901763e-15
-3.46586821998e-14
-1.91803310487e-14
5.14205700398e-14
6.01034986051e-15
-3.58990909513e-15
-9.52393621128e-14
-3.18439271191e-15
1.02560318986e-13
1.33455141636e-15
-5.46924345717e-15
-1.20128028426e-13
1.44158926277e-15
1.22655019933e-13
-3.47503305274e-16
-3.61955570611e-15
-1.29025387219e-13
1.22917998831e-15
1.30010991062e-13
-4.18846807577e-16
-1.79464051e-15
-1.34743078983e-13
-8.30598912775e-15
1.38633432366e-13
2.50815839988e-15
1.9089047869e-15
-3.299299586e-13
-1.02020199873e-12
5.66510340398e-12
1.1494496454e-12
6.11329901152e-13
-3.28420278549e-13
-3.7556730982e-13
-3.71763474168e-13
-8.37891873004e-13
-5.10503212405e-13
-5.69203329304e-12
5.32471432356e-12
1.01175281164e-12
7.03961243484e-13
-2.71370435741e-13
-1.77906436054e-13
-5.01339539885e-12
4.75105147365e-12
4.44788831336e-13
2.66831965835e-13
2.33030663189e-15
-1.26775280175e-13
-4.53025263008e-12
4.30061465938e-12
3.52241546481e-13
1.8413978212e-15
2.25492149704e-13
-2.81874226022e-13
-3.99607585935e-12
3.51454660254e-12
7.57141282797e-13
-2.19229949533e-13
4.50735337682e-13
-1.53659283016e-13
-2.77538114853e-12
1.85285659042e-12
-4.27656922161e-13
-1.54182615874e-13
-1.5566270792e-13
-1.54501382006e-13
3.14656700315e-13
4.40219056784e-13
4.45887719636e-13
3.16688320366e-13
-2.79897594028e-13
6.02907502695e-14
-8.51625947432e-14
9.70423818094e-13
-1.1625234199e-12
2.68116539657e-13
8.45688290978e-14
5.93243755686e-14
8.48594852269e-14
9.74827712913e-14
4.83085023129e-13
-2.19375396194e-12
3.04841245636e-12
-1.39929206046e-12
-3.59342286328e-14
1.34392431149e-13
1.92216958999e-13
-3.63506189328e-12
3.97408610369e-12
-5.60104273604e-13
-1.05529327446e-13
9.27621012969e-14
5.12822885244e-14
-4.17644316047e-12
4.29241856744e-12
-1.75930623284e-13
-8.40891737624e-14
5.95729828723e-14
-1.33954942796e-14
-4.36425754654e-12
4.42845305946e-12
-5.40888761053e-14
-5.6284125386e-14
1.1057794222e-15
1.84321910819e-14
-4.55498999367e-12
4.64176601501e-12
-7.10913922207e-14
-3.18887218864e-14
-2.16465177546e-16
-1.13625747607e-15
-1.98081594804e-15
-1.05886168324e-12
-7.36087009461e-13
5.79711871679e-12
3.39781809123e-13
6.58048166889e-13
3.16666963282e-11
6.5149262228e-17
1.71288762976e-12
-9.60839962386e-13
-7.10786287347e-13
-9.61322031776e-13
-6.89740776357e-13
-9.62706542255e-13
-7.32343215553e-13
-9.78156257111e-13
-7.22520513152e-13
-6.6552634677e-12
-6.6285506021e-12
-6.7018559133e-12
-6.67556098106e-12
3.42191585777e-11
2.4661447395e-17
8.1760179565e-13
-4.11095054814e-13
-2.73106810813e-13
-4.09545836506e-13
-2.60159263583e-13
-5.38748372114e-13
-4.56002387631e-13
-5.60740134498e-13
-4.60690882619e-13
3.65101918397e-11
-1.55214465982e-17
2.95094644082e-16
-6.93218276446e-14
2.73592265691e-14
-5.43184476625e-14
5.59470351175e-14
-4.84603179825e-13
-6.17360001847e-13
-5.1362971342e-13
-6.35412911932e-13
8.6889251804e-12
-4.4226215483e-17
-9.59446348898e-13
3.13679185324e-13
5.91604666165e-13
4.41240693549e-13
6.3686682124e-13
-1.10743713044e-12
-1.54786924238e-12
-1.15920736035e-12
-1.57298676945e-12
1.13387694693e-11
9.04048840741e-12
1.1805542752e-11
1.04518057089e-12
-2.83560284637e-12
8.35988785754e-12
2.89228054542e-12
-7.72812099897e-13
2.44579860514e-13
-8.32924148465e-13
-1.3788091876e-12
6.32141532988e-13
1.54356380004e-12
-2.08551912266e-13
4.67011570812e-11
1.75130135707e-17
3.38957721149e-12
-1.64332272907e-12
-8.07137120323e-13
-2.6529397144e-12
-1.76552694929e-12
3.26240833819e-12
3.60169647152e-12
3.31939466698e-12
3.85127753838e-12
-6.05517364689e-12
-2.26258662974e-11
-5.89506660763e-12
-2.26804807759e-11
3.98228955832e-11
-2.6820131255e-17
1.58517062963e-12
-4.77596541532e-13
-2.62700921483e-13
-8.88447227854e-13
-5.61350339692e-13
2.00137453605e-12
1.5699079146e-12
2.18214704468e-12
1.72974031314e-12
3.68233030298e-11
1.36688626182e-17
4.44888184553e-13
-4.64742889046e-14
3.48633252586e-14
-1.86432953561e-13
-4.60741763402e-14
7.44917859141e-13
5.71542951621e-13
8.3640562728e-13
6.45921598072e-13
3.54261439486e-11
3.55524267013e-17
-3.07840184511e-15
9.35064224371e-14
1.03010998173e-13
5.32432113083e-14
9.82931634824e-14
2.69728244175e-13
2.13274486031e-13
3.11617208738e-13
2.57475293037e-13
7.91981308715e-12
6.96111151252e-17
-9.86033429716e-14
1.45438865336e-13
1.50527500166e-13
1.38592152882e-13
1.58943252804e-13
1.66944539832e-13
1.92934667198e-13
1.84626981152e-13
2.04276234354e-13
8.29303038062e-12
8.77012300822e-12
9.19934496435e-12
1.45115074928e-13
2.0147767082e-13
7.63365683979e-12
-4.84462127895e-14
-1.19830009683e-14
-1.0533904078e-12
-1.36908608343e-17
5.7417048216e-12
-3.39762733058e-13
6.51462011455e-13
3.16666296477e-11
-9.62661744251e-13
1.71286712525e-12
-9.6132975722e-13
-6.89753210481e-13
-9.60802312953e-13
-7.10767876926e-13
-6.62855528349e-12
-6.65522033547e-12
-6.67556784218e-12
-6.70182389445e-12
-7.32321217364e-13
-9.78125182207e-13
-7.22508900306e-13
3.42191040918e-11
-5.38726266036e-13
8.17596898986e-13
-4.09551640203e-13
-2.60171797906e-13
-4.11078467259e-13
-2.73108207623e-13
-4.56001171231e-13
-5.60723212042e-13
-4.60698740397e-13
3.65101558761e-11
-4.84602699314e-13
3.02250525319e-16
-5.43188362438e-14
5.59410596798e-14
-6.93253135527e-14
2.73460224986e-14
-6.17375452909e-13
-5.13630690384e-13
-6.35433526279e-13
1.13387808807e-11
-1.10744449517e-12
-9.59446122861e-13
4.4125253772e-13
6.36870986062e-13
3.13671281904e-13
5.91591560233e-13
-1.54788873058e-12
-1.15920932688e-12
-1.57300665417e-12
8.68890122368e-12
1.1805545668e-11
9.04047691999e-12
1.03779027948e-12
-1.21588267551e-19
1.39719816119e-11
-2.89228094209e-12
-7.78709320336e-13
1.78528003825e-12
-1.60640571146e-18
-1.31267191669e-12
9.90211416078e-12
3.42142374317e-12
3.43336231428e-12
9.94427200793e-12
-1.87168389717e-11
-2.24394558245e-12
-1.97591662294e-12
-1.98262636074e-12
-2.25445260222e-12
-3.66143155016e-16
-9.12540777773e-19
-1.32053942928e-11
1.32159725255e-11
-1.02111773268e-14
-3.41580908773e-13
-4.28118403399e-19
-1.33379509153e-11
1.34459344522e-11
2.3359780002e-13
4.6701143532e-11
3.26240371548e-12
3.3895561106e-12
-2.65293592375e-12
-1.76552382459e-12
-1.64331220328e-12
-8.07128139144e-13
-2.26258521595e-11
-6.05516984774e-12
-2.2680468836e-11
-5.8950797211e-12
3.60169300067e-12
3.319370466e-12
3.85125983976e-12
3.98229097835e-11
2.00136314827e-12
1.58519789024e-12
-8.88438685427e-13
-5.61346030357e-13
-4.77596805689e-13
-2.62690050525e-13
1.56990439162e-12
2.18212736104e-12
1.72972262181e-12
3.6823279939e-11
7.44920295791e-13
4.44887406048e-13
-1.86427527844e-13
-4.60769132117e-14
-4.64632310418e-14
3.48769575208e-14
5.71557581425e-13
8.36414038854e-13
6.45913276311e-13
3.54261234559e-11
2.69749068755e-13
-3.07523076877e-15
5.32433119795e-14
9.82901471622e-14
9.35267222126e-14
1.03028945965e-13
2.13303381427e-13
3.11644289688e-13
2.57484296186e-13
8.29303579869e-12
1.66973655084e-13
-9.86379460115e-14
1.38602679889e-13
1.58939531965e-13
1.45460155152e-13
1.50543839102e-13
7.91981567148e-12
9.19933073034e-12
8.77013748466e-12
1.92963432981e-13
1.84659718341e-13
2.04291771389e-13
1.15826771332e-13
-1.08193156674e-17
8.10554448105e-12
4.84713431284e-14
2.31948667879e-14
-1.05485071251e-12
7.3605852638e-13
5.81079304252e-12
-1.14943367712e-12
6.57432820758e-13
-9.44123049088e-13
-6.37026494471e-12
6.53177689911e-12
-1.01172794906e-12
8.31677307415e-13
-3.60822827837e-13
-6.47774311059e-12
6.38050821209e-12
-4.4477474134e-13
3.64106709183e-13
-2.9977349695e-14
-6.25439363919e-12
6.11347564923e-12
-3.52234375348e-13
3.85316021306e-14
2.7029595088e-13
-5.95599504092e-12
5.59982902427e-12
-7.57141449836e-13
-2.64433026526e-13
7.19332693026e-13
-5.16376458553e-12
-1.85286467899e-12
-6.42989790221e-13
2.83560996888e-12
1.17107699488e-12
8.63172484714e-13
8.76917004611e-13
1.19350957854e-12
1.1811302025e-13
8.32922371534e-13
-5.54277646397e-13
-2.9251305039e-13
-1.0424469512e-13
-6.67593448544e-13
-1.05257778453e-12
3.20110649311e-12
1.16250548267e-12
6.18964862114e-13
-4.15260619799e-14
-4.67302736908e-12
5.13861960767e-12
1.39927901499e-12
1.78021569564e-13
1.03532817213e-13
-5.59763815502e-12
5.68851659083e-12
5.60107228525e-13
-9.58252366554e-15
1.08614446115e-13
-5.8620780785e-12
5.91632361883e-12
1.75944179916e-13
-6.90551451066e-14
7.93222983528e-14
-6.01509502775e-12
6.11735848611e-12
5.41091198338e-14
-6.8731611753e-14
3.92525586225e-14
-2.0148349486e-13
-6.25166808392e-12
6.38100508699e-12
7.11020920799e-14
-3.82081589228e-14
-1.3251527441e-13
3.29923607675e-13
-3.15958957926e-13
9.42755208417e-14
1.27427489773e-12
-1.58820116329e-13
-9.34121395304e-13
5.10493962082e-13
2.51281046129e-12
3.62801154147e-13
-1.27613892416e-13
-9.68656064445e-14
-7.39354973524e-14
-5.32277262292e-13
-9.31257649375e-13
-5.31213624263e-13
-4.16001467395e-14
1.77903203294e-13
-2.23286936174e-12
2.05484297536e-12
1.04698773998e-13
-2.90952362768e-14
-1.95434967964e-14
-1.43365110374e-14
-4.55266710612e-16
1.26771205899e-13
-1.9312872723e-12
1.80576772653e-12
-1.62839571821e-14
6.11523520767e-15
3.36822932544e-15
6.00414335669e-15
2.9371403638e-14
2.81879525501e-13
-1.63831661114e-12
1.35703571607e-12
-1.15296641261e-13
3.71199910226e-14
2.23631142541e-14
2.58436262912e-14
6.07619781503e-14
1.53661207864e-13
-2.77253976414e-13
1.97821759605e-13
-6.93669424865e-14
-6.56230137574e-14
-2.99016596329e-14
-6.02876681578e-14
4.47326969667e-14
-6.80116942181e-15
1.95605111266e-14
3.26996293219e-14
2.48130854549e-14
-4.8308157655e-13
-7.41502585636e-13
1.21118580688e-12
-7.23461924917e-14
2.71044501894e-14
1.69367104105e-14
1.68899939663e-14
2.20339861734e-14
-1.92220790493e-13
-1.53657683924e-12
1.72954091691e-12
-7.18678659813e-14
2.35680913918e-14
1.30329436518e-14
1.24894876919e-14
1.29677515718e-14
-5.1290076187e-14
-1.83261526964e-12
1.8867770183e-12
-4.49152717536e-14
1.50875965991e-14
7.10505644324e-15
6.88321325131e-15
9.33335100097e-15
1.33873994621e-14
-1.903363246e-12
1.88775064411e-12
-3.40772517244e-14
1.36702231225e-14
6.08525489211e-15
7.21371641119e-15
5.75828092937e-15
-1.10612592938e-15
-5.65702519385e-13
5.97621331042e-13
-2.97397166161e-14
-6.82994872924e-15
-3.26025524088e-13
-2.80354355753e-13
5.52732316517e-12
1.12777917537e-12
1.07222416403e-14
-3.26042235805e-13
-3.66863727912e-13
-3.6653876101e-13
-3.91197309989e-13
-4.87500289212e-13
-5.66395902248e-12
5.53175247138e-12
9.95558038813e-13
1.53461117552e-14
-1.63863876135e-13
-1.8132142654e-13
-5.45095357919e-12
5.33490195099e-12
4.59859204921e-13
1.37772612953e-15
-6.06675409597e-16
-1.28370317206e-13
-5.19053016956e-12
4.96028245206e-12
3.67070171194e-13
-7.84546101997e-15
1.38668057962e-13
-2.79232722608e-13
-4.59478715844e-12
3.97319882619e-12
7.75042744716e-13
-1.28897476223e-14
2.56968539421e-13
-1.4910363415e-13
-3.05115202747e-12
1.82255113841e-12
-1.20447112928e-14
-1.47152950028e-13
-1.48814661199e-13
-1.4669737481e-13
4.60464271658e-13
3.27320300525e-13
4.60970073371e-13
3.26690774105e-13
-1.65696143503e-13
5.61490305307e-14
-3.06313881778e-14
1.08388630012e-12
-1.18206266682e-12
1.60423603071e-14
8.33185993172e-14
5.58714033074e-14
8.3122901013e-14
-1.30114567449e-14
5.984376924e-13
-2.61777004959e-12
3.68563106126e-12
-1.66423855992e-12
1.09513124393e-14
4.74844499632e-14
2.74608609697e-13
-4.41741920279e-12
4.82935651548e-12
-7.42350781668e-13
8.32040870603e-15
4.77875462135e-14
8.74687272043e-14
-5.06778875603e-12
5.19255464051e-12
-2.63485396258e-13
3.46323797007e-15
3.7129304032e-14
-1.51658705934e-14
-5.26280163183e-12
5.31428129289e-12
-7.1143474894e-14
-2.29961962003e-15
-5.47413402423e-15
2.80551973033e-14
-5.42865792179e-12
5.47915877707e-12
-4.7748692803e-14
-6.04180787603e-15
-6.83147940242e-15
-5.4806887572e-15
-6.97899715393e-15
-3.14623514482e-13
-7.262750786e-13
5.69737063854e-12
3.35847305838e-13
7.68064884415e-15
3.36176186283e-11
4.56243449233e-17
-1.56522621951e-12
-9.70596331527e-13
-7.26280551883e-13
-9.67519116079e-13
-7.25359316425e-13
-6.74765672675e-12
-6.72992973142e-12
-6.74478560149e-12
-6.72742400748e-12
3.72880211623e-11
1.92176924563e-17
-7.58269438438e-13
-5.74775861928e-13
-4.71855817848e-13
-5.75153785687e-13
-4.72776511162e-13
3.96363518082e-11
-1.10032002316e-17
-2.5447494587e-14
-5.20324897114e-13
-6.39593231793e-13
-5.21621693003e-13
-6.41063358124e-13
9.40488737143e-12
-4.85204588339e-17
8.70330879467e-13
-1.16054021935e-12
-1.57063193357e-12
-1.162385854e-12
-1.57274221413e-12
1.22311321913e-11
9.40543101617e-12
1.22314518804e-11
-2.86308330531e-12
4.81700682682e-13
8.83926745484e-12
2.96096404523e-12
-1.39673299737e-14
9.06365026132e-14
-8.23998795104e-13
-1.41080637056e-12
6.36400123587e-13
1.55342776102e-12
-4.5659754334e-14
4.88220056955e-11
-2.03143029436e-17
-3.340053551e-12
3.33703639414e-12
3.89043434701e-12
3.33751151791e-12
3.89280728692e-12
-5.78472341582e-12
-2.24868306313e-11
-5.78538246478e-12
-2.24932158459e-11
4.38136709627e-11
-2.45530238345e-17
-1.53423261839e-12
2.25732257661e-12
1.80360642552e-12
2.26023603614e-12
1.80668753139e-12
4.14560726838e-11
-1.20933528297e-17
-3.95158740585e-13
8.94028817855e-13
7.02762966379e-13
8.9638050921e-13
7.04473039151e-13
4.01077039041e-11
1.84394483036e-17
2.88289455395e-14
3.56756079047e-13
3.00589615056e-13
3.5788291162e-13
3.01152281776e-13
9.51668701161e-12
1.9552350296e-17
8.86655115104e-14
2.10867649289e-13
2.34120016371e-13
2.10918525229e-13
2.33616717189e-13
9.99652184946e-12
9.51917789232e-12
9.99834692098e-12
7.21051727465e-14
1.75296309105e-13
9.30426155172e-12
-3.04967445302e-14
-4.50521310894e-15
-3.12721504054e-13
-1.14406165974e-17
5.64187865594e-12
-3.35832262542e-13
6.6865513979e-15
3.36175736034e-11
-9.70564718282e-13
-1.5652331681e-12
-6.72993767502e-12
-6.74762698937e-12
-6.72743341444e-12
-6.74476359423e-12
-7.26266321095e-13
-9.67500938702e-13
-7.25357655252e-13
3.72879849501e-11
-5.74759902517e-13
-7.58277098919e-13
-4.71859099699e-13
-5.75140552751e-13
-4.72781786938e-13
3.96363171618e-11
-5.20326816326e-13
-2.54457993524e-14
-6.39609564595e-13
-5.21623722965e-13
-6.41076842676e-13
1.22311381851e-11
-1.16054985284e-12
8.70322585654e-13
-1.57065807245e-12
-1.16239281833e-12
-1.57276807697e-12
9.40486845549e-12
1.22314569285e-11
9.40541713781e-12
4.9292831009e-13
2.57775334228e-18
1.47135756651e-11
-2.96096416413e-12
-1.43997346612e-14
6.83584576342e-13
-4.11695971749e-18
-1.11358597787e-14
3.46705176481e-12
1.00275049376e-11
3.46585228376e-12
1.00310358435e-11
-1.91481196932e-11
-1.99462296269e-12
-2.26341376761e-12
-1.99445346791e-12
-2.26328132923e-12
1.14521147997e-14
-2.83013891385e-19
-1.33770948539e-11
1.33720735295e-11
-6.43050769479e-15
-5.76537606826e-14
1.96385431019e-19
-1.34358840828e-11
1.34667869371e-11
2.67507100393e-14
4.88220619247e-11
3.33701901692e-12
-3.34012616203e-12
-2.24868152171e-11
-5.78473725267e-12
-2.24932106016e-11
-5.78540302739e-12
3.89043009906e-12
3.33747136065e-12
3.892780751e-12
4.38136923677e-11
2.25729543817e-12
-1.53430697418e-12
1.80358616483e-12
2.26020483256e-12
1.80666211785e-12
4.14560900913e-11
8.94023672831e-13
-3.952020777e-13
7.02755773521e-13
8.96378004386e-13
7.0446909217e-13
4.01076942085e-11
3.56767336864e-13
2.88054966445e-14
3.00602246236e-13
3.57898835623e-13
3.01166052139e-13
9.9965377347e-12
2.10891043254e-13
8.86557184897e-14
9.51667853805e-12
9.99833339628e-12
9.51918904906e-12
2.34132204971e-13
2.10943837527e-13
2.33625051589e-13
6.27466815661e-14
-4.47870193068e-18
9.90723265135e-12
3.04939373269e-14
-3.93266052194e-15
-3.09161353175e-13
7.26253122638e-13
5.70138524169e-12
-1.12776488117e-12
9.2878700988e-15
-4.720755011e-13
-6.45086749804e-12
6.92670275713e-12
-9.9553602244e-13
2.12136889746e-14
-2.28315338658e-13
-7.17514349587e-12
7.28158197278e-12
-4.59849548277e-13
6.95721490027e-15
-2.6594457446e-14
-7.2712152775e-12
7.15087584826e-12
-3.67075061952e-13
-6.32553236056e-15
1.60787911701e-13
-6.93326647211e-12
6.40137118284e-12
-7.75048027617e-13
-1.43919250682e-14
3.79255616242e-13
-5.7308501736e-12
-1.8225648653e-12
-1.47059396186e-14
2.86309818584e-12
9.17980215839e-13
1.24455712657e-12
9.17899862613e-13
1.2453297962e-12
4.5832438918e-14
8.23998919804e-13
-5.60743990303e-13
-2.85855026405e-13
-2.32323421574e-14
-3.4613980412e-13
-1.09581362049e-12
3.58067709293e-12
1.18205281726e-12
1.62451493975e-14
-1.408831233e-13
-5.49469007337e-12
6.21489656481e-12
1.66423245368e-12
1.37372447753e-14
-1.08940842864e-14
-6.84963728862e-12
7.00071272177e-12
7.42338554333e-13
1.14872052269e-14
3.8292592692e-14
-7.22373019565e-12
7.27287724736e-12
2.63487722198e-13
5.81118760359e-15
4.41367989836e-14
-7.38682381788e-12
7.48366663305e-12
7.1160757187e-14
-1.25198617174e-15
3.75517748353e-14
-1.75308146858e-13
-7.62596139302e-12
7.72214268126e-12
4.77584722254e-14
-6.18338846602e-15
-2.82790894956e-14
3.26020769948e-13
-3.13181475273e-13
1.41074325555e-14
1.25133229837e-12
-9.07035071206e-13
-1.92777206185e-13
4.87493293131e-13
2.53762701114e-12
3.51634108537e-15
-5.13447486248e-13
-9.0363743279e-13
-5.11739312854e-13
-6.35563093862e-14
1.81318898209e-13
-2.37342395002e-12
2.25863871265e-12
-2.97735131926e-15
1.10033165092e-14
1.28373091332e-13
-2.16117763698e-12
2.02689809562e-12
-5.09686645941e-15
7.3017463478e-14
2.79237771422e-13
-1.82542460792e-12
1.48023204262e-12
-7.06266955101e-15
3.845842e-14
1.4910842802e-13
-2.97436311777e-13
2.06717874442e-13
-7.62358441018e-14
-2.06113434633e-14
-1.95670322403e-14
-5.61483803805e-14
6.19674029856e-14
-1.73978071255e-14
2.00012852536e-14
1.11472715895e-14
3.03987820809e-14
-5.98429959999e-13
-8.33920992208e-13
1.39662256436e-12
5.32960543415e-15
3.94968231254e-14
-2.74602829033e-13
-1.79309820377e-12
2.02466643198e-12
3.53777758653e-15
2.78160478105e-14
-8.74561789746e-14
-2.14626376356e-12
2.20507382043e-12
8.30074382206e-16
2.1798674793e-14
1.51688150342e-14
-2.21464469106e-12
2.1798100314e-12
-2.132830039e-15
6.36538773817e-15
5.4723165121e-15
-6.71446906286e-13
7.10872677623e-13
-4.78061801976e-14
-3.45587365314e-15
-3.2474400234e-13
2.55868668775e-13
5.5795747171e-12
1.12352173849e-12
-5.80450538218e-13
-3.24022771203e-13
-3.65144412039e-13
-3.64603442738e-13
3.60835827273e-13
-5.01257877382e-13
-5.70335096652e-12
5.51910678527e-12
9.99585301323e-13
-6.74919069723e-13
1.62730587923e-13
-1.88326433411e-13
-5.37411206339e-12
5.21020174269e-12
4.58699920994e-13
-2.69193754634e-13
1.64015059835e-14
-1.33790953392e-13
-5.03657241042e-12
4.80035286975e-12
3.70283102837e-13
-1.66741146984e-14
-1.13651036971e-13
-2.89600065987e-13
-4.44885071492e-12
3.86514186754e-12
7.89153993863e-13
1.97805956668e-13
-2.33272490919e-13
-1.53822982201e-13
-2.99425306683e-12
1.86181223393e-12
4.05889177078e-13
-1.51962346405e-13
-1.54834782351e-13
-1.5343081638e-13
4.60181349663e-13
3.2643689371e-13
4.5934382018e-13
3.27912693811e-13
1.32604254533e-13
5.84287647113e-14
-5.14862450004e-14
1.06453383931e-12
-1.19890526004e-12
-2.34103085985e-13
8.45789444809e-14
5.92574326365e-14
8.50917342484e-14
-7.64731675291e-15
5.82906358611e-13
-2.51544817512e-12
3.51411926959e-12
-1.62589777742e-12
5.19676409288e-14
-6.45446517236e-14
2.60637899183e-13
-4.19608055789e-12
4.58260565319e-12
-7.05045573712e-13
1.22427230376e-13
-5.52224030305e-14
8.00965289492e-14
-4.80856616408e-12
4.93044248492e-12
-2.389320456e-13
9.21815984906e-14
-3.26366927541e-14
-1.48975355055e-14
-5.00224621018e-12
5.05993901696e-12
-6.17160548759e-14
5.15574763578e-14
-5.60192833051e-15
-1.55363076401e-14
-5.18003139382e-12
5.24271600194e-12
-3.9388941844e-14
1.69703256127e-14
-7.16410382023e-15
-5.45192948147e-15
-6.51146907833e-15
2.99030664395e-13
-7.21202952501e-13
5.7309034213e-12
3.33687229683e-13
-6.42418362755e-13
3.16264472701e-11
2.9296037789e-17
-9.35415891829e-13
-9.65311887957e-13
-7.17160704534e-13
-9.42334927154e-13
-7.26665908532e-13
-6.68945751903e-12
-6.66464627813e-12
-6.6389532621e-12
-6.6135809559e-12
-6.8952497127e-13
-9.38460361229e-13
-6.70190044197e-13
3.42181672881e-11
-1.3658256988e-18
-4.01300077815e-13
-5.61322117171e-13
-4.62655354369e-13
-5.42303703082e-13
-4.61323367912e-13
-2.67629235027e-13
-3.99571270686e-13
-2.53918192044e-13
3.6525625178e-11
-2.18797875718e-17
-7.31304196718e-14
-5.17426675209e-13
-6.39577307336e-13
-4.92199608918e-13
-6.25447981401e-13
2.0601041145e-14
-5.66043557118e-14
5.08892826058e-14
9.04420775257e-12
-6.20025208953e-17
3.00288789838e-13
-1.16528721855e-12
-1.5802993804e-12
-1.11864347658e-12
-1.56013333506e-12
5.76427979154e-13
4.30021426046e-13
6.23512541363e-13
1.1809377361e-11
8.69386459462e-12
1.13426537516e-11
-2.90390712185e-12
-4.54950996559e-13
8.68627914889e-12
2.96621704987e-12
7.50577237147e-13
-8.82599711552e-14
-8.28429473418e-13
-1.40425619638e-12
6.35397894858e-13
1.5560804874e-12
1.29466324843e-13
4.67333060459e-11
-6.85272283593e-17
-1.7973065013e-12
3.31863612533e-12
3.85599029541e-12
3.2598357992e-12
3.60834470542e-12
-5.88609851167e-12
-2.26874666156e-11
-5.95997975335e-12
-2.25560686666e-11
-8.88651798224e-13
-2.59597707645e-12
-1.74457033045e-12
3.98855269404e-11
-7.02127878153e-17
-4.85881038683e-13
2.18560437075e-12
1.7357121993e-12
2.00930612002e-12
1.57923565891e-12
-2.66853900846e-13
-8.87162351208e-13
-5.56438745473e-13
3.68829452e-11
-3.09716551854e-17
-4.09184542693e-14
8.42612830821e-13
6.51174373008e-13
7.54931381322e-13
5.79542220304e-13
3.98590886105e-14
-1.7989733787e-13
-3.98440229261e-14
3.54806147793e-11
1.32743199267e-17
9.75759216073e-14
3.15662209245e-13
2.59975881861e-13
2.75496828935e-13
2.16627227854e-13
1.05775623867e-13
5.80978253565e-14
1.01921392336e-13
8.78273424808e-12
2.21009544823e-17
1.44221655629e-13
1.8512812498e-13
2.03072359746e-13
1.66631068404e-13
1.90448007199e-13
9.20986390222e-12
7.93677975424e-12
8.30596470764e-12
1.47756442813e-13
1.38899807019e-13
1.57782999473e-13
-6.26820139611e-14
1.43646613981e-13
8.72281687269e-12
-2.57460572482e-14
4.7023315381e-15
2.99578809925e-13
-6.30278290969e-18
5.67323959477e-12
-3.33674227935e-13
-6.39137873868e-13
3.16264067272e-11
-9.6529504589e-13
-9.38469062955e-13
-6.66465385226e-12
-6.68943495105e-12
-6.61358766114e-12
-6.63892751567e-12
-7.1715639273e-13
-9.423153e-13
-7.26655204136e-13
-6.70200807484e-13
-9.35393976322e-13
-6.89514879508e-13
3.42181403837e-11
-5.61311357977e-13
-3.99571683053e-13
-4.62662376871e-13
-5.42288588982e-13
-4.6132362181e-13
-2.5392322835e-13
-4.0128665086e-13
-2.67632021306e-13
3.65255872184e-11
-5.17434529491e-13
-5.66043208938e-14
-6.39595713461e-13
-4.9220554156e-13
-6.2546329463e-13
5.08876771018e-14
-7.31323854604e-14
2.0590179988e-14
1.18093779575e-11
-1.16530114683e-12
4.30025942192e-13
-1.58032380079e-12
-1.11865985485e-12
-1.560161211e-12
6.23515670039e-13
3.00281214913e-13
5.76405760871e-13
9.04419216245e-12
1.13426572894e-11
8.6938427009e-12
-4.65553140128e-13
1.33234347802e-17
1.44845690883e-11
-2.96621668813e-12
7.56587781304e-13
-6.62485868749e-13
1.14107689606e-19
1.29543575213e-12