/*--------------------------------*- C++ -*----------------------------------*\
  =========                 |
  \\      /  F ield         | OpenFOAM: The Open Source CFD Toolbox
   \\    /   O peration     | Website:  https://openfoam.org
    \\  /    A nd           | Version:  7
     \\/     M anipulation  |
\*---------------------------------------------------------------------------*/
FoamFile
{
    version     2.0;
    format      ascii;
    class       volVectorField;
    location    "6";
    object      U;
}
// * * * * * * * * * * * * * * * * * * * * * * * * * * * * * * * * * * * * * //

dimensions      [0 1 -1 0 0 0 0];

internalField   nonuniform List<vector> 
5218
(
(0.0394679918612 0.00632235662421 0.0062096163774)
(0.0274806548814 0.0043603488128 0.00230495971798)
(0.0181859605883 0.00107036690133 0.000496983246661)
(0.0150716964392 0.000956650341227 -5.41337084442e-05)
(0.0129956908491 0.00249063861964 -0.000447076134468)
(0.00821054693902 0.00635007496088 -0.000992469549874)
(-0.00213039291708 -0.00142996360146 0.000628212712612)
(0.00552178490191 -0.00192282522477 -0.000421022113383)
(0.0108357428092 -0.000674800227074 -0.0004735938926)
(0.0132263759372 -0.000158091881718 -0.000303288134435)
(0.014124568257 -3.82695902077e-05 -9.76828775915e-05)
(0.0146549547489 -0.000390387208632 0.000418696123105)
(0.0388381806403 0.001287832871 0.00608733074822)
(0.0297994008741 0.00324422814063 0.00244569683186)
(0.0245346945434 0.00162851294922 0.000645162348154)
(0.0233890610784 0.00187149328369 5.25911607916e-05)
(0.0257835792575 0.00545583361427 -0.000548193691145)
(0.0351694425885 0.0199428317912 -0.00292274585046)
(0.0150730226168 0.0219764201811 -0.000949981804306)
(0.0204817257093 -0.0225682900442 0.00384107044909)
(0.0189685834562 -0.00668865737481 3.59152837507e-05)
(0.0187060666079 -0.00137247304959 -0.000294161521387)
(0.019787248643 -0.000176963785233 -0.000432530860972)
(0.0206660045902 -3.85196920824e-05 -0.000230421169758)
(0.0210293467321 -0.000177940358849 0.000457103008974)
(0.0387548384038 -0.000152609122947 0.00608788237302)
(0.0294832615525 -0.0011191728903 0.00235819122176)
(0.0253400705858 -0.000602240464464 0.000591677660963)
(0.0252660576349 -0.000750174778693 1.1394336819e-05)
(0.0310637810136 -0.00248205360096 -0.000682010511823)
(0.0563344578965 -0.0107142861911 -0.00222158497875)
(0.164659639323 -0.0702794382949 -0.00595461455725)
(0.30967016195 -0.00734977738698 0.000341582542139)
(0.275642448592 0.0127605391116 0.00947880013534)
(0.0679675564314 0.0253982629285 0.00376129703145)
(0.0291316657537 0.0041757113849 0.000404297725548)
(0.0210783263244 0.000669665144472 -6.40636785432e-05)
(0.0209787298723 6.43623643171e-05 -0.000370435297484)
(0.0217904665391 2.80490209553e-07 -0.000214649969169)
(0.0220679930424 3.9196864092e-05 0.000533770473479)
(0.0389146334798 -0.00190845542658 0.00606434570343)
(0.0298269691265 -0.00465035347846 0.00249239052919)
(0.022531946105 -0.00193596744618 0.000605424612449)
(0.0200014910214 -0.00196058512321 -2.99830715804e-05)
(0.0194109072688 -0.00499825784946 -0.00053773684734)
(0.0190808546899 -0.0140272895458 -0.00161296980354)
(0.00414100764241 -0.0083943866545 -0.000330510984216)
(0.00170187453685 0.00751987673151 0.00145144637833)
(0.0106346121815 0.00460752789662 -0.000361571079833)
(0.0150648212373 0.00130219388367 -0.000536206416527)
(0.0172658263218 0.000258377251254 -0.000447251198133)
(0.0182370672154 8.79901193025e-05 -0.000170573801493)
(0.0186313865087 0.000291129974374 0.00048860000094)
(0.0390220880684 -0.00899135019826 0.00628704859912)
(0.0131773126933 -0.00187901234725 0.000551726570957)
(0.00682684256378 -0.000243097288921 0.00010751199515)
(0.00537531153416 -0.000224300333923 -2.60162866769e-05)
(0.00449651124839 -0.000523825762771 -0.000145438812564)
(0.00224089989749 -0.00136759170884 -0.000459060276181)
(-0.00160128880219 9.12054423528e-05 0.000239193736301)
(0.00114980887019 0.000260559956261 -3.89220412391e-05)
(0.00341896004676 2.39096270401e-05 -0.000122759281385)
(0.00440228871043 -8.9247915863e-05 -9.04148892207e-05)
(0.00477173399821 -0.000133292480333 -3.31560941326e-05)
(0.00501520567033 -4.32032025421e-05 5.16588300057e-05)
(0.0531454832989 0.0149775987046 0.00819155739042)
(0.055066773506 0.00893674941151 0.0084413646838)
(0.0480537578428 0.00322450647423 0.0029912417244)
(0.043380469291 0.00256093395393 4.89179985491e-05)
(0.0368730116589 0.00547355162673 -0.00232020946698)
(0.021005447282 0.0113528588372 -0.00487673467063)
(0.00107108263242 -0.00527923229572 0.00343376673461)
(0.0234513104905 -0.00808899703214 -0.000554220959322)
(0.0356561664448 -0.00368445234791 -0.00141127023956)
(0.0405328783864 -0.00153122171365 -0.00117059768887)
(0.0423081702276 -0.000485435019375 -0.000741593301033)
(0.0438847517867 -0.000485988273542 -0.000364473952068)
(0.0525387754097 0.00528762028264 0.00867939793034)
(0.0742535248411 0.00562051062523 0.00853370674279)
(0.0814647840772 0.00387199904813 0.00408581623944)
(0.0855981260396 0.00435971426792 0.00040733371084)
(0.0919925483982 0.0125392908786 -0.00446626631283)
(0.0803267797854 0.0348457898443 -0.00949228604698)
(0.0392710292596 0.0473489682324 -0.00934231197034)
(0.116356034005 -0.0623215297668 0.015231048933)
(0.0909908217728 -0.0251659764312 0.00736714677752)
(0.0816007764817 -0.00832230382783 0.00220527119737)
(0.0808527220549 -0.00278642989685 -0.000359919416273)
(0.0846231705479 -0.00167345196836 -0.00149279460744)
(0.0727927698914 -0.0010576752897 -0.000728444481446)
(0.0521856122597 -0.00163066886556 0.0085933190175)
(0.0742533993911 -0.00562013969073 0.00853363007412)
(0.0814646843716 -0.00387175000446 0.00408580352252)
(0.0855980458198 -0.00435964404684 0.000407361593805)
(0.0919924406877 -0.0125393393317 -0.00446628238741)
(0.119592449182 -0.0176646005855 -0.00947499665968)
(0.235416230659 -0.10530325088 -0.0166940786566)
(0.535082933463 -0.0250151643159 -0.000726691213305)
(0.503787998045 0.0188282095856 0.0110746938336)
(0.116356027423 0.0623211636295 0.0152310674756)
(0.0909907943869 0.0251653546213 0.00736721256789)
(0.0816008502675 0.00832193602555 0.00220528500959)
(0.0808527468716 0.0027863557744 -0.000359952873262)
(0.084623178183 0.0016736430041 -0.00149292388275)
(0.0776537673068 0.000521162627984 -0.000354605413424)
(0.0529346043997 -0.00940141425597 0.00866883484542)
(0.0650127784209 -0.0109418459936 0.00967564273112)
(0.0638709331892 -0.00562240831652 0.00400475730951)
(0.0611662156638 -0.0048721427174 0.000436361125307)
(0.057065750536 -0.0101917232412 -0.00277752340039)
(0.0466898149928 -0.0245455419344 -0.00741926452357)
(0.0124733221468 -0.0196404026916 -0.00474472239568)
(0.0211922067085 0.0210477342008 0.00703244639435)
(0.0451624440147 0.0172635067242 0.00167975639446)
(0.0529717138298 0.00555570769051 -0.000399256189231)
(0.056728121338 0.00143605706955 -0.00111226722633)
(0.0590593425776 0.000437829471434 -0.000970997262936)
(0.0611551214965 0.00149246924414 -0.000514302818192)
(0.0500016345809 -0.0134980865086 0.00445289532215)
(0.0273858405853 -0.00138257466375 0.00470102849792)
(0.0206854876694 -0.000407843796869 0.00115119249003)
(0.0179839214916 -0.000288592188432 -0.000179399452251)
(0.014376784643 -0.00068966349647 -0.0012619237185)
(0.00949337970485 -0.00414410325066 -0.00262398814945)
(-0.00236277939752 0.000918725366781 0.00144857793868)
(0.00775703853077 0.000736700577808 -0.000994224176936)
(0.0145167590116 0.000646014198316 -0.000934252812664)
(0.0170920405218 0.000397520270669 -0.000577128723071)
(0.0176348075453 4.57218115781e-05 -0.000423739942554)
(0.0232396123601 -0.000715437220233 -0.000266642326005)
(0.0522941102307 0.0146587635187 0.00141689101554)
(0.055752628007 0.00861265208701 0.00208886064696)
(0.0533530322962 0.00328658667612 0.0008821182258)
(0.0502014035153 0.0026518067785 -2.56845549317e-05)
(0.0423672738968 0.00558515817474 -0.000784932747313)
(0.0223990872726 0.0109022428047 -0.00141530576986)
(0.00115736946461 -0.00538819014079 0.000921610860844)
(0.0288079425876 -0.00969522872487 0.00019981576126)
(0.0438280229003 -0.00479389053512 -0.000197975256158)
(0.0495350688075 -0.00221714955612 -0.000266695440272)
(0.0513294269689 -0.000670207235682 -0.000235283373802)
(0.0524924863301 -0.000329536161557 -0.000203026124565)
(0.0516348600503 0.00520712843531 0.00159357289236)
(0.0767780674967 0.0055992292 0.000181993175184)
(0.088173594176 0.00402429043449 7.26938247186e-05)
(0.0941618440626 0.00441189191893 -3.10920320027e-05)
(0.0992473470635 0.0126427710994 -0.000102294689179)
(0.0866313265675 0.0356343302572 -0.00244202767711)
(0.0394310918402 0.0472869908549 -0.00270910086866)
(0.117921062129 -0.0643477999827 0.000105564554091)
(0.0998790879187 -0.0278374120806 0.000128915064974)
(0.0922990016906 -0.009817528143 0.0001208669879)
(0.0917995091018 -0.00351294405791 6.96824441805e-05)
(0.0962303890284 -0.00205363425375 5.34652325233e-06)
(0.0899778316604 -0.000813222214187 -0.000167109639629)
(0.0512285437896 -0.00159936890042 0.00158120997856)
(0.0767779950759 -0.00559896976341 0.000181953226113)
(0.0881735400886 -0.00402408522571 7.26684883859e-05)
(0.0941617783623 -0.00441182999458 -3.11021108799e-05)
(0.0992472666338 -0.0126428778704 -0.000102316494675)
(0.128386317167 -0.0180996171994 -0.00248211048044)
(0.238113541872 -0.106180069862 -0.00366750001731)
(0.541700036459 -0.0257159154815 -0.00045227717018)
(0.507065228145 0.0187059561743 0.00154405027127)
(0.117921183573 0.064347334329 0.000105497018571)
(0.0998791686248 0.0278367295022 0.000128886287161)
(0.0922991243571 0.00981703272566 0.000120838720949)
(0.0917995990794 0.00351275253248 6.96681823585e-05)
(0.0962304255667 0.0020535755049 5.29616664327e-06)
(0.0963307201592 0.000518221479442 -0.000101101495539)
(0.0520978940275 -0.00922883823962 0.0015674635609)
(0.0672496083284 -0.0108033923494 0.0025307460688)
(0.0721280639783 -0.00587051063937 0.00122729331109)
(0.0717418959169 -0.00513401804263 0.000105868733158)
(0.0663077578969 -0.0106408292084 -0.000917153136121)
(0.0505382955791 -0.0245181588879 -0.00205718748467)
(0.0122753072009 -0.0192567244357 -0.0014100308709)
(0.023599203718 0.0224668013484 0.00168774548659)
(0.0550059423518 0.0208559094047 0.00083751682547)
(0.0656627147838 0.00736488141693 0.000146385854049)
(0.0702140437981 0.00215922371236 -0.000175784652551)
(0.0728542350149 0.000671522675654 -0.000252408155215)
(0.0749010559909 0.00124405219761 -0.000254599948098)
(0.0496591959881 -0.0132111349224 0.000827328011944)
(0.0267511625056 -0.00120571051916 0.000992365849235)
(0.0224853697026 -0.000410596705978 0.000326285731893)
(0.0203065536765 -0.000265978476855 -7.62974672662e-05)
(0.0159590558435 -0.000641341184954 -0.000406580539422)
(0.0100629100072 -0.00424950068085 -0.00116759255474)
(-0.00301489311328 0.00093184301137 0.000607625146167)
(0.00896069642368 0.000892080749149 -0.000101713432815)
(0.0172046091051 0.000948074912376 -0.000202568000452)
(0.0202455694645 0.000655871274333 -0.000161689226357)
(0.020667039245 0.000116904952674 -0.00013236567432)
(0.0279515896104 -0.00126467342249 -0.000195393972845)
(0.052573576544 0.0146280101796 -0.00415976268451)
(0.055974990907 0.00881999534634 -0.00552331534492)
(0.0523206332701 0.00340108669433 -0.00238706404043)
(0.0485745066274 0.00272853677366 -0.000223176689183)
(0.0410538242392 0.00570724725666 0.00162641147444)
(0.0222116243789 0.0112516798405 0.00345909305243)
(0.00139377959482 -0.0054123149061 -0.00219263061233)
(0.0274421270367 -0.0094622152829 9.69571266407e-05)
(0.0414905631518 -0.00460471852028 0.0010127568714)
(0.0469117705235 -0.0020555448414 0.000921612706243)
(0.0487249732805 -0.000606628446441 0.000558895622107)
(0.0500549084576 -0.000298565666206 0.00024564235818)
(0.0519123026477 0.00519010033076 -0.00469181989937)
(0.0740874541006 0.00554411672915 -0.00821997014313)
(0.0814380189787 0.0038680917462 -0.00398391507252)
(0.0856673962776 0.00437862441356 -0.000469872852425)
(0.0920736851307 0.0125764060332 0.00429549507337)
(0.0845610630024 0.0357908373728 0.00655384800193)
(0.0393710364901 0.0474458264922 0.00453297122814)
(0.1164550452 -0.0625303343483 -0.0153527419864)
(0.0911199740716 -0.0252276013534 -0.00724241379807)
(0.0817124923075 -0.00837031743949 -0.00205280820003)
(0.0809633631231 -0.00281774853949 0.000442961739524)
(0.0847492107912 -0.00168225921432 0.00148644911373)
(0.0841821977849 -0.000675658012748 0.000723962874402)
(0.0515134830023 -0.00159769544326 -0.00466042758666)
(0.0740873967524 -0.00554395324718 -0.0082199570511)
(0.0814379757404 -0.00386798207312 -0.0039839218285)
(0.0856673262028 -0.00437865870262 -0.00046990840656)
(0.0920735836962 -0.0125766171502 0.00429542273034)
(0.125630334864 -0.0181493805763 0.00662727136952)
(0.23756523896 -0.106066592226 0.0104009053655)
(0.540918873864 -0.0256502831536 0.000669076959703)
(0.507015545416 0.0187234814416 -0.00298066689251)
(0.116455052741 0.0625297331494 -0.0153529306781)
(0.091120119978 0.0252268758931 -0.00724258612431)
(0.0817126434192 0.00836979910867 -0.00205293047437)
(0.0809634371047 0.00281749906613 0.000442891871159)
(0.0847492407327 0.00168215633138 0.00148640664079)
(0.0899433828129 0.000410787751332 0.000519800703168)
(0.0523908559198 -0.0092019106988 -0.00461930237)
(0.0670652484398 -0.0107849737722 -0.00653427286537)
(0.0701243367019 -0.00580483338424 -0.0031783410359)
(0.0688692290061 -0.00517826983014 -0.000566825974297)
(0.063810964026 -0.0108626020374 0.0019037594748)
(0.0496662484404 -0.0249743184775 0.0051736040979)
(0.0123111400034 -0.0193932438919 0.00228048169272)
(0.0235198246494 0.0224803512461 -0.00481576063924)
(0.0523310355299 0.0204131659718 -0.00189339830292)
(0.0618433985462 0.00706710994965 4.82313921422e-08)
(0.0660714151633 0.0019678287045 0.000757091131569)
(0.0685776963919 0.000555804416959 0.000726797275077)
(0.07068182154 0.000981030093157 0.000375629342605)
(0.0497023559783 -0.0131427772911 -0.00136227844988)
(0.0272369726349 -0.00131834712508 -0.00300863109761)
(0.0223623086951 -0.000465620511827 -0.00108463565768)
(0.0198781503508 -0.000296264342824 -9.41512015733e-06)
(0.0156649283378 -0.000683301664597 0.000814873488011)
(0.0100811778396 -0.00438715367053 0.00169862544792)
(-0.00284511892045 0.00097175336133 -0.000800342941342)
(0.00859174564462 0.000901380488133 0.000641627614714)
(0.0163914671775 0.000920747276521 0.000803579454726)
(0.0193354640482 0.00061292526352 0.000532334708977)
(0.0198370060491 0.00010533173403 0.000305350219647)
(0.0274181843504 -0.00124876140835 0.000204238787783)
(0.0541514490078 0.0144328468037 -0.01382404604)
(0.0487032681178 0.00820029816502 -0.00832126889179)
(0.0389042034462 0.00293489671621 -0.0024693907333)
(0.0338299393686 0.00231709311463 -9.24038819753e-05)
(0.028842746362 0.00500307284426 0.00173391834923)
(0.0174055101864 0.0108994004091 0.00412770355452)
(-0.000455821744087 -0.00409728401635 -0.00244797590174)
(0.0160031243619 -0.00556968055956 0.00118738107201)
(0.0258097704827 -0.00241508649104 0.00153116448026)
(0.0300732234762 -0.000903961262969 0.00105866841812)
(0.0317482288128 -0.000246984896498 0.00051925996862)
(0.0330162987584 -5.53048108684e-05 3.25328850322e-05)
(0.0528361504692 0.00461714794059 -0.0138015120745)
(0.0569625227783 0.00611694702875 -0.00984784215061)
(0.0551019812191 0.00359206158515 -0.00387792391303)
(0.0543175805977 0.00373660484263 -0.00110781567744)
(0.0570187239416 0.00966624093149 0.00130128401323)
(0.0670840819849 0.0319691781104 0.00942299376163)
(0.0375227643783 0.0466467988523 0.0101422917714)
(0.0584708814516 -0.0459508371284 -0.0128516126243)
(0.0533594500131 -0.0181040765606 -0.00249378305514)
(0.0472745439456 -0.004657451603 -0.000948054280843)
(0.0477365234607 -0.00112488537359 7.68865821109e-05)
(0.0496869583806 -0.000440505759554 0.000290394030974)
(0.0518536749337 -0.000458261291761 0.000585193274709)
(0.0525117729038 -0.00141932474956 -0.013775099425)
(0.0570006490055 -0.00223777676289 -0.00969513862276)
(0.0572200014415 -0.00144579324079 -0.00369535171769)
(0.0583759220489 -0.00158385681672 -0.000743055766758)
(0.0661911215449 -0.0044949519292 0.00279260598604)
(0.100378097989 -0.0164577239103 0.00936972530395)
(0.223371094065 -0.100422074137 0.0207290173534)
(0.52946410351 -0.0243036792304 6.7463477937e-05)
(0.497701778776 0.0188042369566 -0.0161118967215)
(0.15140347597 0.0496822765901 -0.0206226878003)
(0.0759781454772 0.0114660256715 -0.00782194501281)
(0.0533093306553 0.00250170992521 -0.00279674023524)
(0.0509265971197 0.000576856996169 -0.000538829382436)
(0.0526890645126 0.000228504915727 9.98385143558e-05)
(0.0550193333801 0.000148354302451 0.00026587850105)
(0.0534076547718 -0.00849846445951 -0.0138126522523)
(0.0556328642594 -0.00862409703402 -0.00914917670858)
(0.049967899365 -0.00429988444706 -0.00306200149546)
(0.0464134309781 -0.00400577295401 -0.000292711288757)
(0.0439620746502 -0.00910336980577 0.00211019306765)
(0.0385920767274 -0.0232387900029 0.00669131007657)
(0.0121391077796 -0.0196608646772 0.00499537101939)
(0.0140300336284 0.0177262313817 -0.00565224924044)
(0.0318113727689 0.0124722437431 0.00013034668914)
(0.0381031740879 0.00403367782613 0.00119162139702)
(0.0414134503403 0.00120132355855 0.00123774336253)
(0.0433031592557 0.00048935705121 0.000750396570699)
(0.044662833338 0.000605807619883 0.000178612378657)
(0.0502730700803 -0.012934835219 -0.00620909575716)
(0.0272736780386 -0.00213995928872 -0.00505228668655)
(0.0181678434905 -0.000522065319508 -0.00109230604897)
(0.0149362004172 -0.000318694601805 2.17731520537e-05)
(0.0119104787856 -0.000688753891343 0.000795201631068)
(0.00874434289908 -0.00435824528424 0.00224208183592)
(-0.00243374925132 0.000882546982121 -0.00101560916486)
(0.00539684395212 0.000454700331478 0.00124221631293)
(0.0110031012064 0.00044660617818 0.000942461112395)
(0.0134013679729 0.000264360391164 0.000502185494125)
(0.0141804441646 4.9975294744e-05 0.000284810205435)
(0.0149443436226 -0.000463015306822 0.000344929234613)
(0.0502730628684 0.0129348586216 -0.00620907846809)
(0.0385586825815 0.00476656596827 -0.00827119107099)
(0.038998972785 0.00880947786323 -0.00631677893359)
(0.0174296140415 0.00303175057924 -0.000896457019143)
(0.027273692685 0.00213997059426 -0.00505226932948)
(0.0215183489513 0.00104020303779 -0.00238848846994)
(0.0131700020043 0.00178795321115 -0.000493340531782)
(0.00788574161897 0.000239096004453 -0.000135509666547)
(0.0181679155124 0.000522088455272 -0.0010922747894)
(0.0162254726578 0.000322156889568 -0.000388220208115)
(0.00702227014178 0.000307061643375 -6.86835724773e-05)
(0.00577555626474 9.56969165487e-05 2.54415163519e-05)
(0.014936336038 0.000318710948921 2.17775976505e-05)
(0.0136694540944 0.000435923188806 0.00038468850729)
(0.00550328837339 0.000286933079339 3.99176375803e-05)
(0.00485492261758 0.000307636346634 0.000129377355594)
(0.011910606263 0.000688720333281 0.000795287313913)
(0.00931992736663 0.00112133503659 0.00136120492429)
(0.00456061203524 0.000625351968751 0.0001534991801)
(0.00318078219495 0.00101232658887 0.000340360807726)
(0.00874444780464 0.00435818699115 0.00224208969155)
(0.00227813411794 0.00147939625614 0.000422561884711)
(-0.00232041943386 0.00123652670765 -0.0014196156316)
(-0.00135143582921 0.000659600661197 -0.000258422781595)
(-0.00243404502815 -0.000882888276146 -0.0010153652765)
(0.00111755695393 -0.00029056205005 0.00110358330965)
(-0.00178233976452 -5.31436589336e-05 -0.000205945233768)
(0.000267241786787 -0.000257101485339 6.43648340374e-05)
(0.0053965408654 -0.000454773464067 0.00124227166355)
(0.00868916794634 -0.000537603678956 0.0011866021431)
(0.00113267412213 -0.00023182141373 0.000107291950892)
(0.0029457422932 -0.000244927968864 0.000121078500795)
(0.0110028846231 -0.00044663619805 0.000942504227329)
(0.0124756339272 -0.000359142640407 0.000714436246102)
(0.00343357570729 -2.7436327122e-05 0.00011940067489)
(0.00422669535492 -0.000176424676874 9.43693974661e-05)
(0.0134011360325 -0.000264351046806 0.000502162389949)
(0.0139221019114 -0.00015285421323 0.000345197059673)
(0.00444438782221 8.46001478998e-05 7.78149500659e-05)
(0.00473479177176 -0.000127745829263 4.89134843914e-05)
(0.0141803779883 -4.99180624619e-05 0.00028472210445)
(0.0143403392907 9.07618050221e-05 0.000400412298634)
(0.00480912897303 0.000135087602046 2.82060357057e-05)
(0.00497690969617 -0.000140227013769 -4.06439245347e-06)
(0.0149443557239 0.000463059719755 0.00034488628533)
(0.021148473979 -0.000134799227827 0.000105628582618)
(0.00506145981053 6.9965430122e-05 -3.89453762291e-05)
(0.00559425669631 -8.72323345439e-05 -9.09296011579e-05)
(0.00172840649027 0.00255271554758 0.00140764093537)
(0.0385922591141 0.0232386312466 0.00669132198675)
(0.0289071574948 0.031395052632 0.00815121005789)
(0.00828996356012 0.00642738556382 0.000978541908205)
(0.000745295376375 0.000990071123634 8.01247884257e-05)
(0.0191578192375 0.0141030446592 0.001611490907)
(0.00996362564629 0.0125007046729 0.00245114219295)
(0.0121391013134 0.0196608028874 0.0049953994174)
(0.00414656228067 0.00840397966303 0.000330503181309)
(-0.00266428675403 0.00286793434995 -0.00299485303643)
(-0.000586923627022 -2.62058570001e-05 -0.0067681024085)
(-0.00166478096254 0.000890309952461 -0.000514459238801)
(-0.00160283501235 -0.00315576757475 -0.000485072873423)
(0.22337105853 0.100421894221 0.0207290209154)
(0.519011936815 0.0696341052459 0.00613677527922)
(0.015084843951 0.0219888640841 0.000949093058728)
(0.164672116132 0.0702799155857 0.00595446830234)
(0.305755659908 0.0292901443052 -1.67065081379e-05)
(0.52946416745 0.0243036383636 6.74527500972e-05)
(0.53998558268 0.000170103823672 -0.0111766903447)
(0.309625549876 0.00734557740655 -0.000337355387125)
(0.29816399206 -0.00112249253682 -0.00333208991853)
(0.0239474263445 -0.0320878506097 -0.0162560807063)
(0.497701796228 -0.0188042782124 -0.0161118784796)
(0.229987925863 -0.0914769315404 -0.0327676640281)
(0.0013071139186 -0.0113391155082 -0.00163426738705)
(0.275714237781 -0.0127635729639 -0.00941763707563)
(0.121779856325 -0.0589205258654 -0.007923156961)
(0.519011981972 -0.0696341288117 0.00613680119164)
(0.0375227268889 -0.0466468937683 0.0101422542993)
(0.16467213968 -0.0702800677283 0.00595447326034)
(0.30575568732 -0.029290149942 -1.67194521498e-05)
(0.0150848640091 -0.0219889674453 0.00094910924159)
(0.539985555282 -0.000170021861828 -0.0111767252722)
(0.309625553952 -0.00734551649477 -0.00033733234468)
(0.298163935357 0.00112254701743 -0.00333208821532)
(0.22998787068 0.0914768188452 -0.0327677203016)
(0.0239473878021 0.0320874027368 -0.016256277183)
(0.27571425105 0.012763540813 -0.00941762746949)
(0.121779787202 0.0589201302323 -0.00792319376889)
(0.00130715882884 0.0113388942319 -0.00163437849395)
(0.0289071226962 -0.0313951543634 0.00815116640453)
(0.0174052871333 -0.0108995849896 0.00412768645805)
(0.00172839408168 -0.00255271565079 0.00140763269251)
(0.019157726933 -0.0141031783853 0.00161148483255)
(0.00996357898899 -0.0125008078483 0.00245117872637)
(0.0082898398412 -0.00642755095143 0.000978538697928)
(0.000745288627295 -0.000990077907598 8.01267984468e-05)
(0.00414655328855 -0.00840406903228 0.000330514650641)
(-0.000586872198078 2.57041150255e-05 -0.0067683595092)
(-0.00266415220791 -0.00286869959545 -0.00299530837915)
(-0.00160270501928 0.00315551119859 -0.000485158386466)
(-0.00166454203539 -0.000890460498207 -0.000514503389225)
(0.0385586333743 -0.00476655246524 -0.00827119163666)
(0.0389989651197 -0.00880946637247 -0.00631679067187)
(0.0174296309449 -0.00303173669098 -0.000896469611396)
(0.0215183269652 -0.00104019654208 -0.00238852335512)
(0.0131700065795 -0.00178792909459 -0.000493341938509)
(0.00788574906754 -0.000239106194659 -0.000135538491245)
(0.0162253673871 -0.000322145597278 -0.000388243077646)
(0.00702225695694 -0.000307053650306 -6.87004279899e-05)
(0.00577555449481 -9.57020656481e-05 2.54231126199e-05)
(0.0136692997603 -0.00043596511234 0.000384622753026)
(0.00550328735507 -0.000286913194114 3.98966707682e-05)
(0.00485487822639 -0.000307684765493 0.000129376929744)
(0.00931979463736 -0.00112137658623 0.00136114522663)
(0.0045605426436 -0.000625415033736 0.000153501318991)
(0.00318072375446 -0.00101238774184 0.00034034594868)
(0.00227806432825 -0.0014794874842 0.000422530512376)
(-0.00232022855351 -0.00123684762284 -0.00141988402397)
(-0.001351251912 -0.000659757351152 -0.000258490551808)
(0.00111798498701 0.000290447495349 0.00110335151721)
(-0.00178209725672 5.29971609724e-05 -0.000206005647926)
(0.000267430355159 0.000256954343891 6.43188612971e-05)
(0.00868945714139 0.000537472164801 0.00118653468174)
(0.00113289285494 0.000231752945362 0.000107209597659)
(0.00294584148072 0.000244850231408 0.000121073884459)
(0.0124758448131 0.000359056519768 0.000714398634704)
(0.00343368957119 2.73867372694e-05 0.00011937076304)
(0.00422679079966 0.000176398647197 9.43513930427e-05)
(0.0139222153336 0.000152868166236 0.000345186350378)
(0.00444451404371 -8.46131510443e-05 7.77627502066e-05)
(0.00473486274516 0.000127751908574 4.88872553578e-05)
(0.0143402724517 -9.06718756487e-05 0.000400460028942)
(0.00480919800701 -0.000135051647225 2.81560815061e-05)
(0.00497689400177 0.000140289246142 -4.07421406194e-06)
(0.0211483855752 0.000134864382148 0.000105628776939)
(0.00506145954701 -6.98697061477e-05 -3.89680084969e-05)
(0.00559422131429 8.72601565311e-05 -9.09317791765e-05)
(0.0390220967544 0.00899140591171 0.00628705330789)
(0.0175673741264 0.00329218020174 0.000942867634933)
(0.0502364649475 0.0135039623939 0.00647383705377)
(0.0411375246324 0.0071623424083 0.00827411828354)
(0.013177311473 0.00187907552711 0.000551724831393)
(0.00768648301186 0.000178493815079 0.00019725669415)
(0.0359802722744 0.00465281668029 0.00683980802281)
(0.0264889277605 0.00115761843387 0.00245801705903)
(0.00682686350809 0.000243193855869 0.000107501672048)
(0.00562465981695 3.34218747715e-05 -2.67345459449e-06)
(0.0247064012956 0.000972971286715 0.00181288247115)
(0.0216362021552 0.000502135140734 0.000253738327693)
(0.00537534951193 0.000224377403683 -2.60249359446e-05)
(0.0047771712175 0.000215808621648 -0.000118609438345)
(0.02085045865 0.000766164914609 0.00014885491343)
(0.0185233723051 0.00104746274143 -0.000854918291601)
(0.00449656682143 0.000523825860558 -0.000145440248124)
(0.00312051003637 0.000890850895397 -0.000390369685392)
(0.0173346251778 0.00165597925645 -0.000968031727452)
(0.0119551298385 0.00279375665703 -0.00204710972253)
(0.00224094074807 0.00136757607085 -0.0004590536178)
(0.00881360509606 0.00381413219595 -0.00224645252632)
(-0.00123968716199 0.00058304641003 0.000218790540998)
(-0.00218918291389 0.000949693121643 0.00179518287748)
(-0.00160131345177 -9.13517226662e-05 0.000239257695664)
(0.000314788318196 -0.00031035819222 3.83413691058e-06)
(-0.00198251732536 -0.00105786770975 0.00128534492726)
(0.00555231697221 -0.00192722379058 -0.000852408634724)
(0.00114980685768 -0.000260692904702 -3.89582296385e-05)
(0.00294105352002 -0.0002460190527 -0.000134381124994)
(0.00863453009296 -0.00160073255844 -0.000915741573906)
(0.0143558792319 -0.00105651819655 -0.00119018219131)
(0.00341882619092 -2.39549016358e-05 -0.000122790055324)
(0.00419214301956 -0.000172912619567 -0.000107507292728)
(0.0157528851469 -0.000547482700133 -0.000832084230779)
(0.0178233515681 -0.000496944512107 -0.000892723161637)
(0.00440213979144 8.92737762019e-05 -9.04403341819e-05)
(0.00469444797421 -0.000128995445839 -5.13566997043e-05)
(0.0183536582049 -8.87510308792e-05 -0.000461444291205)
(0.0189915024324 -0.000245892564829 -0.000608952680531)
(0.00477167168248 0.000133371904251 -3.31441185465e-05)
(0.00495232046416 -0.000154477263104 2.21560725119e-05)
(0.0191521713857 0.000130437097691 -0.000250587575497)
(0.0197877707363 -7.13378047147e-05 -0.00043505804179)
(0.00501523566569 4.33047865141e-05 5.1667466647e-05)
(0.00554596056089 -0.000144548360061 6.74418777345e-05)
(0.0203544227254 0.00037000312708 -0.000103009889756)
(0.0211510124563 -0.000310094443046 -0.000136530434413)
(0.000736706899803 0.000980513378046 -8.16920315371e-05)
(0.0190809622975 0.014027250226 -0.00161295401299)
(0.00994447436397 0.0124757732469 -0.00244892839558)
(0.0172775405465 0.0107160646543 -0.00419846275207)
(0.00171110457742 0.00252168473477 -0.0014236951865)
(0.0384439783824 0.0230961484891 -0.00677713492602)
(0.0288464309456 0.031289088563 -0.00822297758221)
(0.00414101641689 0.00839433911485 -0.000330512604845)
(0.0121186552436 0.0196222762868 -0.00501987281851)
(-0.0015429966949 0.000798494025125 0.000389953443954)
(-0.00124534036128 -0.00328666482563 0.000634484187549)
(-0.00190347314698 0.000375716507331 0.00336456383427)
(0.00856745963482 -0.0153920485418 0.00983879970803)
(0.164659597533 0.0702793354162 -0.00595459015245)
(0.305802691125 0.0293028553677 1.82694960779e-05)
(0.0374884023268 0.0465951234395 -0.0101813904526)
(0.223349617194 0.100408012185 -0.0207911896058)
(0.51909902739 0.0696565799329 -0.00618000046519)
(0.309670143874 0.00734983382916 0.00034162571804)
(0.29812975077 -0.00112532957297 0.00337152231487)
(0.529571631173 0.0243153561357 -0.000101847403448)
(0.540227158787 0.000187113189252 0.0110992612233)
(0.0017390091244 -0.0114664443293 0.00171702996906)
(0.275642485393 -0.0127605203573 0.00947881174394)
(0.121970325563 -0.0581962871057 0.00823232976231)
(0.02467908023 -0.026320720078 0.0184076494874)
(0.498214020968 -0.0188294059237 0.0159898963907)
(0.232481679856 -0.0907234766961 0.0336426714062)
(0.305802710963 -0.0293029414589 1.82977161596e-05)
(0.0150730114895 -0.0219764782485 -0.000949961754178)
(0.223349602349 -0.100408113828 -0.0207912096662)
(0.519098999407 -0.0696566304897 -0.00618002328771)
(0.0374883439416 -0.0465952089857 -0.0101814526833)
(0.298129776002 0.00112527823627 0.00337155170336)
(0.529571601745 -0.0243153938595 -0.000101845650768)
(0.540227144797 -0.000187196740496 0.0110992506673)
(0.12197036514 0.0581962200729 0.00823233839476)
(0.00173896552029 0.0114662882982 0.00171705976187)
(0.498214026175 0.0188293597979 0.0159898683793)